ITEM: TIMESTEP
55900000
ITEM: NUMBER OF ATOMS
4556
ITEM: BOX BOUNDS pp ff pp
0.0000000000000000e+00 1.5011186343322501e+02
0.0000000000000000e+00 1.6691186343322499e+02
-1.0000000000000000e-02 1.0000000000000000e-02
ITEM: ATOMS id type x y vx vy fx fy xu yu c_shearStr[4] c_shearStr[1] c_shearStr[2] v_coordA v_coordB v_coordA_wall v_coordB_wall
1 1     1.4680445752e+02     3.2112242274e+00    -7.5055931717e-05     0.0000000000e+00    -5.1025095056e-10     1.0728610495e-09    -3.3074059108e+00     3.2112242274e+00     1.3520631440e-05    -1.2265514165e-05    -2.5527352985e-05 0 0 0 0
2 1     1.4606519821e+02     1.3528864139e+00    -7.5055931717e-05     0.0000000000e+00     2.6097447380e-05    -4.9941043625e-05    -4.0466652270e+00     1.3528864139e+00    -5.7891173807e-06    -5.3317227446e-04    -1.3450574731e-04 0 0 0 0
3 1     1.2425628715e+02     4.3742392364e+00    -7.5055931717e-05     0.0000000000e+00    -4.3081891440e-10    -1.4085167945e-09    -2.5855576282e+01     4.3742392364e+00    -7.4905124326e-04    -6.3932412317e-04    -2.9394931581e-03 0 0 0 0
4 1     1.3952224561e+02     1.4763414881e+01    -3.2485529509e-05     6.3629935450e-06    -2.0105398436e-07     5.1228411762e-08    -1.0589617821e+01     1.4763414881e+01     2.6130934925e-04    -3.4140247298e-04    -1.2123714837e-03 4 0 0 0
5 1     1.3229650742e+02     2.0180798545e+01     5.3382775045e-06     6.3042522375e-05    -9.0214471031e-07    -5.3669993512e-07    -1.7815356009e+01     2.0180798545e+01     1.0402338358e-03    -1.7916773635e-03    -2.7999793964e-03 5 0 0 0
6 1     1.2750787512e+02     6.9198837191e+00    -7.5055931717e-05     0.0000000000e+00    -1.8305385270e-04     3.3181367743e-04    -2.2603988312e+01     6.9198837191e+00     1.3011348447e-04    -3.2920563454e-04    -6.1516760627e-04 0 0 0 0
7 1     1.2107365760e+02     1.9143744065e+01    -7.3053807975e-05    -6.8737174382e-05     5.0703114254e-07    -1.7623002871e-07    -2.9038205828e+01     1.9143744065e+01    -7.0264896570e-04    -8.0881829225e-04    -1.1585328941e-03 3 0 0 0
8 1     7.3374493244e+01     1.6481722641e+02     7.5055931717e-05     0.0000000000e+00    -1.1038473813e-09    -1.0977526726e-09     7.3374493244e+01     1.6481722641e+02    -6.6402699888e-04    -1.2472831823e-03    -1.0873736454e-03 0 0 0 0
9 1     1.3889141177e+02     5.2090817653e+00    -7.5055931717e-05     0.0000000000e+00    -1.6651946933e-10    -9.9298326202e-10    -1.1220451659e+01     5.2090817653e+00    -7.0903776450e-05    -1.6573716954e-03    -1.1841110480e-03 0 0 0 0
10 1     1.1994518485e+02     2.1961827974e+01    -4.4995431719e-05     4.0903129848e-07     1.1969563025e-06     5.1456465162e-07    -3.0166678583e+01     2.1961827974e+01     6.9452446909e-04    -1.8172376494e-03    -8.0595180255e-04 3 0 0 0
11 1     1.4587801003e+02     1.2617716161e+01    -5.9871844930e-05     1.5841637763e-05    -6.3139780876e-07    -2.1192741068e-07    -4.2338534039e+00     1.2617716161e+01     2.9264237555e-04    -7.5697262548e-04    -1.4698599381e-03 4 0 0 0
12 1     1.2384061722e+02     1.7026820868e+01    -7.6590026221e-05    -4.6344316553e-05    -1.1205020138e-07    -1.4879729003e-07    -2.6271246213e+01     1.7026820868e+01     5.1250379228e-05    -2.0626853123e-03    -1.4549385242e-03 4 0 0 0
13 1     1.4417107308e+02     8.9661772254e+00    -7.0021177233e-05    -3.2670308689e-06    -7.1770576418e-08     4.2521521437e-08    -5.9407903523e+00     8.9661772254e+00    -4.1401479597e-06    -3.2535460272e-04    -1.2708717581e-04 3 0 1 0
14 1     1.3168648976e+02     1.8280128084e+01    -2.4468781804e-06     6.5504763920e-05    -5.3320240786e-07    -6.1359100611e-07    -1.8425373675e+01     1.8280128084e+01     9.7228482421e-04    -2.2026729957e-03    -2.6234783331e-03 4 0 0 0
15 1     1.2298949494e+02     2.8319759939e+00    -7.5055931717e-05     0.0000000000e+00     1.0231490302e-09     3.4236138848e-10    -2.7122368489e+01     2.8319759939e+00    -6.2838355632e-04    -2.4800385946e-03    -1.5099466109e-03 0 0 0 0
16 1     1.0918171634e+02     4.9192654574e+00    -7.5055931717e-05     0.0000000000e+00     1.8205166281e-09    -1.7311985470e-09    -4.0930147092e+01     4.9192654574e+00    -1.7273997634e-04    -3.5911836737e-04    -4.6945292375e-04 0 0 0 0
17 1     1.1094505536e+02     1.1350093954e+01    -1.0468681171e-04    -2.3752759983e-05     3.6471731434e-07     1.8651988615e-07    -3.9166808073e+01     1.1350093954e+01     5.8526743682e-04    -1.6468648163e-03    -2.4152426077e-03 3 0 0 0
18 1     1.1627821184e+02     1.4869794177e+01    -7.9918605361e-05     2.2984722211e-05    -3.3347359255e-07     2.8522367883e-07    -3.3833651594e+01     1.4869794177e+01     4.4418044279e-06    -1.0469808376e-03    -3.5215516548e-04 4 0 0 0
19 1     1.1276847752e+02     4.3223698403e+00    -7.5055931717e-05     0.0000000000e+00    -2.3420044341e-09    -1.0310280533e-09    -3.7343385912e+01     4.3223698403e+00     3.6123856369e-04    -1.1747175998e-03    -1.0873209189e-03 0 0 0 0
20 1     1.3909426227e+02     1.2811501710e+01    -5.2421596958e-05     1.0987054678e-05    -2.2125884595e-07     1.3655272330e-08    -1.1017601161e+01     1.2811501710e+01     1.6000077559e-03    -2.2626977170e-03    -2.5987810648e-03 4 0 0 0
21 1     6.7900474975e+01     1.6484414677e+02     7.5055931717e-05     0.0000000000e+00     0.0000000000e+00     0.0000000000e+00     6.7900474975e+01     1.6484414677e+02    -0.0000000000e+00    -0.0000000000e+00    -0.0000000000e+00 0 0 0 0
22 1     1.4254327614e+02     4.5956165588e+00    -7.5055931717e-05     0.0000000000e+00     4.3966170184e-09     1.4705453550e-09    -7.5685872944e+00     4.5956165588e+00     5.1186683819e-04    -1.0231627370e-03    -8.7467444718e-04 0 0 0 0
23 1     1.4460124928e+02     1.0919104013e+01    -5.2770364347e-05    -7.0070682382e-06    -2.2048810748e-07     7.2086721256e-08    -5.5106141576e+00     1.0919104013e+01     1.8291661024e-04    -1.6027554312e-03    -8.7690158776e-05 3 0 0 0
24 1     1.2976805829e+02     1.7727325917e+01    -3.3930945748e-06     6.7639350012e-05    -5.4920974127e-07    -3.9232644207e-07    -2.0343805145e+01     1.7727325917e+01    -4.8512521428e-04    -1.5397265681e-03    -5.7681951548e-04 3 0 0 0
25 1     1.1960211178e+02     7.2423694996e-01    -7.5055931717e-05     0.0000000000e+00     4.0920575577e-04    -7.3620713471e-04    -3.0509751653e+01     7.2423694996e-01    -6.8215590534e-04    -2.3351062633e-03    -6.4276576761e-04 0 0 0 0
26 1     1.2637405156e+02     8.5667386362e+00    -7.6974713951e-05    -1.9533458445e-06    -6.3202844552e-08    -5.9812231517e-08    -2.3737811876e+01     8.5667386362e+00    -4.8161244873e-04    -4.0194264275e-04    -1.0060560748e-03 1 0 2 0
27 1     1.4585481789e+02     4.9713156843e+00    -7.5055931717e-05     0.0000000000e+00    -9.7812809447e-10     2.7459708671e-10    -4.2570455468e+00     4.9713156843e+00    -1.1616831283e-03    -1.1553687995e-03    -1.5891141623e-03 0 0 0 0
28 1     1.1571320634e+02     1.9365174779e+01     1.6258051052e-04     1.6074429769e-04     3.6574481250e-06     2.0292638599e-06    -3.4398657088e+01     1.9365174779e+01     1.0521888314e-05    -8.7192755539e-06    -1.4964556744e-05 2 0 0 0
29 1     1.4659104050e+02     1.0752852310e+01    -4.9258677730e-05     2.0584369996e-05    -2.7087295332e-07    -1.1059655007e-07    -3.5208229315e+00     1.0752852310e+01     1.1796522532e-03    -1.9725362804e-03    -1.4268072968e-03 4 0 0 0
30 1     1.4263051112e+02     1.1240351451e+01    -5.4596856521e-05    -1.0731993315e-05    -1.8682445153e-07     6.5033438710e-08    -7.4813523136e+00     1.1240351451e+01    -1.5220869971e-04    -2.0217643493e-03    -1.1804874536e-03 5 0 0 0
31 1     1.1082891565e+02     1.9882882289e+01    -7.9982233452e-05     1.6415758835e-05    -2.2035572209e-07     2.4901299978e-07    -3.9282947781e+01     1.9882882289e+01     1.0691717875e-04    -2.2547320984e-03    -1.5351899096e-03 5 0 0 0
32 1     1.1908410701e+02     2.6547535874e+00    -7.5055931717e-05     0.0000000000e+00    -1.5046659337e-09     1.4184509426e-09    -3.1027756425e+01     2.6547535874e+00     1.7914961947e-05    -4.1527744509e-04    -5.5644610715e-04 0 0 0 0
33 1     1.1428204599e+02     1.4791404775e+01    -7.9060829465e-05    -5.4314798160e-05    -2.1301848330e-07     5.6725822080e-07    -3.5829817447e+01     1.4791404775e+01     2.0712339982e-04    -1.2189201126e-03    -3.1664069757e-04 4 0 0 0
34 1     1.3865434501e+02     3.2255158457e+00    -7.5055931717e-05     0.0000000000e+00     3.1661907532e-09     1.8275089016e-09    -1.1457518426e+01     3.2255158457e+00     6.5636401856e-04    -1.2566332306e-03    -1.4201115944e-03 0 0 0 0
35 1     6.4218203020e+01     1.6581595320e+02     7.5055931717e-05     0.0000000000e+00    -1.6565925289e-05     3.4031797963e-04     6.4218203020e+01     1.6581595320e+02    -3.3671979431e-05    -3.9192426905e-04    -2.2863237954e-04 0 0 0 0
36 1     1.2693853852e+02     2.2377843337e+00    -7.5055931717e-05     0.0000000000e+00    -5.4561920779e-09    -1.4960256912e-09    -2.3173324918e+01     2.2377843337e+00    -2.9641859813e-04    -2.2459151197e-03    -2.3012630776e-03 0 0 0 0
37 1     1.3524305548e+02     6.4414873967e+00    -7.5055931717e-05     0.0000000000e+00    -9.1003104629e-10     4.5024921768e-10    -1.4868807958e+01     6.4414873967e+00     1.6826917556e-04    -3.0682044701e-03    -2.1635547606e-03 0 0 0 0
38 1     1.2232797691e+02     1.3048641751e+01     3.5076715484e-05     5.8372579803e-05    -5.2981141811e-07     3.3100619655e-07    -2.7783886528e+01     1.3048641751e+01     1.0872998178e-04    -3.1128177772e-04    -2.7894995484e-04 4 0 0 0
39 1     1.4219795731e+02     9.2895657449e+00    -7.0916760482e-05    -4.7034418894e-06    -6.8321359383e-08     3.7555675850e-08    -7.9139061280e+00     9.2895657449e+00     7.2804348135e-05    -5.4363514145e-04    -1.1315678563e-03 3 0 2 0
40 1     1.1111227675e+02     5.4399711013e+00    -7.5055931717e-05     0.0000000000e+00     4.6392014579e-11    -1.2038883963e-10    -3.8999586679e+01     5.4399711013e+00     3.4969355443e-04    -1.4964219352e-03    -2.0521172307e-03 0 0 0 0
41 1     1.4522331381e+02     6.8680912685e+00    -7.5055931717e-05     0.0000000000e+00     7.3521143492e-05     1.4224842756e-04    -4.8885496222e+00     6.8680912685e+00     1.1611276796e-04    -1.2745497575e-03    -2.7386987051e-04 0 0 0 0
42 1     1.1761833177e+02     1.3386696688e+01    -1.5227664825e-04    -4.4157470672e-05    -2.2648715549e-07     4.6747516966e-07    -3.2493531661e+01     1.3386696688e+01     2.5644942331e-04    -9.7983131588e-04    -6.1471669028e-04 4 0 0 0
43 1     1.2188190673e+02     1.6644007205e+01    -8.6101851170e-05     1.4652601352e-06    -2.3168166013e-07     1.0295250926e-07    -2.8229956703e+01     1.6644007205e+01    -2.2852681174e-04    -2.0845507836e-03    -5.1549131393e-04 4 0 0 0
44 1     1.2899675596e+02     5.5868714427e+00    -7.5055931717e-05     0.0000000000e+00    -3.4235133765e-09     6.2002151042e-10    -2.1115107469e+01     5.5868714427e+00     2.8912295127e-04    -8.3651300755e-04    -2.8214948171e-04 0 0 0 0
45 1     1.4536821680e+02     1.4549161389e+01    -4.8108494072e-05     1.8449682275e-05    -6.4805817923e-07    -1.8609029576e-07    -4.7436466343e+00     1.4549161389e+01     6.0385743325e-04    -1.5680440840e-03    -1.3235137911e-03 4 0 0 0
46 1     1.2878766724e+02     1.3937302104e+01    -8.5429191407e-05     2.9737366222e-07     1.9238396898e-07    -3.6538146405e-07    -2.1324196190e+01     1.3937302104e+01     5.5104162564e-04    -4.3891711006e-04    -2.6360380557e-03 4 0 0 0
47 1     1.2495943767e+02     2.5049633891e+00    -7.5055931717e-05     0.0000000000e+00     7.7570170605e-10    -1.0056628609e-10    -2.5152425765e+01     2.5049633891e+00     7.2037643537e-04    -1.6715115550e-03    -1.2988770747e-03 0 0 0 0
48 1     1.1277058092e+02     1.8366497930e+00    -7.5055931717e-05     0.0000000000e+00    -3.8975275698e-11     2.7005013937e-10    -3.7341282509e+01     1.8366497930e+00    -2.3039052500e-05    -1.5177148075e-03    -7.2387734256e-04 0 0 0 0
49 1     1.4614413246e+02     8.6430890784e+00    -6.9214506701e-05    -2.5903794095e-06    -7.8912721185e-08     3.6468637940e-08    -3.9677309773e+00     8.6430890784e+00    -7.4772207581e-05    -4.1792247831e-04    -9.3648487579e-05 2 0 1 0
50 1     1.3825977712e+02     9.4578438290e+00    -5.5002822442e-05    -6.0405029888e-06    -1.2476540819e-07     1.9612674355e-08    -1.1852086316e+01     9.4578438290e+00    -3.9604492128e-05    -9.8379708905e-05    -1.7475283633e-04 2 0 1 0
51 1     1.2294615212e+02     1.4950691953e+01     1.5809410453e-05     6.4969360473e-05    -2.1767765462e-07     1.8544489368e-07    -2.7165711310e+01     1.4950691953e+01     1.9869254583e-07    -5.3052303647e-06    -5.9720200325e-06 3 0 0 0
52 1     1.1274829026e+02     1.9334635228e+01    -7.6571301020e-05     3.3236653066e-05     2.1300208574e-07     1.6890931792e-06    -3.7363573175e+01     1.9334635228e+01     3.6930741880e-04    -1.5238857526e-03    -1.1197243571e-03 3 0 0 0
53 1     1.4388734733e+02     1.2793751400e+01    -6.1420570446e-05    -5.8024411257e-06    -5.8598236469e-07     3.9378285878e-07    -6.2245161032e+00     1.2793751400e+01    -8.9946878481e-05    -5.9626887401e-04    -6.5616830680e-04 3 0 0 0
54 1     1.2820876976e+02     1.8977422571e+01    -7.9954212869e-05    -2.7312937356e-05    -5.0038156757e-08     2.0110187959e-07    -2.1903093670e+01     1.8977422571e+01    -2.3506916737e-05    -6.1257694358e-04    -6.1690426298e-04 3 0 0 0
55 1     1.2432617577e+02     1.2981873307e+01     3.4631359527e-05     2.7917383638e-05    -5.4595445313e-07    -1.4430263578e-07    -2.5785687668e+01     1.2981873307e+01    -5.6208014012e-05    -2.4335946733e-04    -5.7202487495e-04 3 0 0 0
56 1     1.4207702597e+02     2.0011160616e+00    -7.5055931717e-05     0.0000000000e+00     0.0000000000e+00     0.0000000000e+00    -8.0348374643e+00     2.0011160616e+00    -0.0000000000e+00    -0.0000000000e+00    -0.0000000000e+00 0 0 0 0
57 1     1.1433294634e+02     3.0817207393e+00    -7.5055931717e-05     0.0000000000e+00    -3.7674907961e-10     3.5507234244e-10    -3.5778917096e+01     3.0817207393e+00     3.5210967902e-04    -2.1032794438e-03    -6.0841468362e-04 0 0 0 0
58 1     1.1971661442e+02     6.8395147321e+00    -7.5055931717e-05     0.0000000000e+00    -5.5673495781e-05     3.8765927218e-05    -3.0395249012e+01     6.8395147321e+00    -7.1145301188e-04    -1.7634052005e-03    -2.5414024199e-03 0 0 0 0
59 1     1.1117091452e+02     6.3987682713e-01    -7.5055931717e-05     0.0000000000e+00     6.2928074336e-04    -5.1127703909e-04    -3.8940948909e+01     6.3987682713e-01    -4.9495832482e-05    -1.6151325330e-03    -2.3365299752e-04 0 0 0 0
60 1     1.1762819831e+02     4.3983764653e-01    -7.5055931717e-05     0.0000000000e+00    -8.5106033144e-04    -1.5094375797e-03    -3.2483665127e+01     4.3983764653e-01     4.1511064412e-04    -1.6571472886e-03    -1.4643605490e-03 0 0 0 0
61 1     1.1240956660e+02     1.5486996838e+01    -6.5198794191e-05    -6.2926120087e-06     2.1057993944e-08     9.4001086080e-07    -3.7702296829e+01     1.5486996838e+01    -2.6996505801e-04    -2.2337364916e-03    -2.3681814874e-03 5 0 0 0
62 1     6.5864462087e+01     1.6468224172e+02     7.5055931717e-05     0.0000000000e+00     1.4173048692e-04     4.2262829260e-04     6.5864462087e+01     1.6468224172e+02     1.7968610203e-04    -4.1222978481e-04    -6.2048308865e-04 0 0 0 0
63 1     1.3705800733e+02     2.0225530352e+00    -7.5055931717e-05     0.0000000000e+00     6.4073176010e-10    -1.4870326834e-09    -1.3053856104e+01     2.0225530352e+00     1.0615346705e-04    -7.5606614567e-04    -3.5809057349e-04 0 0 0 0
64 1     1.2721210286e+02     1.0380021356e+01    -7.5613846042e-05    -5.0222925674e-06    -1.6821687713e-07    -7.3262498339e-08    -2.2899760575e+01     1.0380021356e+01    -2.9490933592e-05    -2.3919530126e-03    -1.6999375490e-03 5 0 0 0
65 1     1.1342032225e+02     1.0848976693e+01    -1.0435094841e-04    -2.2794121797e-06    -3.9254695472e-07     9.2714015457e-07    -3.6691541181e+01     1.0848976693e+01     5.5832106573e-05    -5.1860028534e-05    -1.4470311453e-04 3 0 0 0
66 1     1.2171290417e+02     2.1036164941e+01    -8.2918985602e-05    -6.5190515301e-05     6.3782380171e-07    -2.1585506217e-07    -2.8398959259e+01     2.1036164941e+01     2.0363152961e-04    -2.0755928713e-03    -1.1979982304e-03 4 0 0 0
67 1     1.4004028914e+02     1.7893191565e+00    -7.5055931717e-05     0.0000000000e+00     6.0638883106e-04    -1.1224708564e-03    -1.0071574290e+01     1.7893191565e+00     2.7856293978e-04    -6.2625760884e-04    -1.0285590725e-03 0 0 0 0
68 1     1.3611381315e+02     9.1190353210e+00    -7.5053573346e-05     1.7075532763e-09     0.0000000000e+00     0.0000000000e+00    -1.3998050288e+01     9.1190353210e+00    -0.0000000000e+00    -0.0000000000e+00    -0.0000000000e+00 0 0 0 0
69 1     1.3032034892e+02     9.0036258172e-01    -7.5055931717e-05     0.0000000000e+00     1.6570304741e-05    -3.4032019341e-04    -1.9791514510e+01     9.0036258172e-01    -5.8070078946e-04    -8.8167149578e-04    -5.0981384995e-04 0 0 0 0
70 1     1.4078554202e+02     3.6431488134e+00    -7.5055931717e-05     0.0000000000e+00    -2.8921832582e-09    -1.1260152489e-09    -9.3263214103e+00     3.6431488134e+00    -2.6423138086e-04    -2.2246696174e-04    -8.3478332297e-04 0 0 0 0
71 1     1.1823227412e+02     1.5289182220e+01    -5.7726410429e-05    -7.5390128848e-05    -4.6996626265e-07     5.9202483873e-07    -3.1879589317e+01     1.5289182220e+01    -3.0938359005e-04    -7.3849664071e-04    -5.7912580339e-04 4 0 0 0
72 1     1.2131039613e+02     1.7545856432e+00    -7.5055931717e-05     0.0000000000e+00     1.7036930318e-09    -9.2431136298e-10    -2.8801467300e+01     1.7545856432e+00    -1.0971962367e-03    -1.8344884887e-03    -7.1335244007e-04 0 0 0 0
73 1     5.4950430639e+01     1.6637341793e+02     7.5055931717e-05     0.0000000000e+00     8.0769806158e-06     6.4580524701e-04     5.4950430639e+01     1.6637341793e+02    -8.0659166725e-06    -1.0087910080e-07    -6.4492061536e-04 0 0 0 0
74 1     1.3084757197e+02     4.8342370827e+00    -7.5055931717e-05     0.0000000000e+00     1.0293349112e-09    -1.9073605434e-11    -1.9264291462e+01     4.8342370827e+00    -9.6070981517e-05    -1.4488738084e-03    -1.0962308243e-03 0 0 0 0
75 1     1.4337857622e+02     1.4726291018e+01    -5.0887716724e-05    -3.4627631341e-06    -5.6066431713e-07     4.0130748214e-07    -6.7332872160e+00     1.4726291018e+01     3.1510697944e-05    -1.6485860472e-03    -1.2343875781e-03 5 0 0 0
76 1     1.0924152016e+02     1.2388036508e+01    -8.9042776519e-05    -1.7837596722e-06     4.2887919865e-07     2.8729113000e-07    -4.0870343273e+01     1.2388036508e+01     9.5853237970e-05    -2.2199444762e-03    -2.0425646704e-03 4 0 0 0
77 1     1.2571782347e+02     6.5757602125e-01    -7.5055931717e-05     0.0000000000e+00     1.0494987659e-04    -1.2106148002e-03    -2.4394039959e+01     6.5757602125e-01    -1.0426241718e-04    -1.4660200541e-03    -1.1656516322e-03 0 0 0 0
78 1     1.1421517288e+02     2.0690203938e+01    -1.3373014036e-05    -3.6697504048e-05     1.8578166644e-06    -1.0214011880e-07    -3.5896690557e+01     2.0690203938e+01    -5.4390342777e-04    -7.8536561557e-04    -6.4935574914e-04 4 0 0 0
79 1     1.2351028298e+02     8.6346454005e+00    -7.4739595757e-05     2.6702841502e-07    -6.7498379476e-08    -4.7078340970e-08    -2.6601580458e+01     8.6346454005e+00    -2.1882296465e-04    -1.5831516864e-04    -3.3190976575e-04 1 0 2 0
80 1     1.4084047307e+02     5.6409349930e+00    -7.5055931717e-05     0.0000000000e+00    -6.2479098112e-10     1.0568636909e-09    -9.2713903670e+00     5.6409349930e+00    -2.6011048039e-04    -1.8623290427e-03    -1.2864622788e-03 0 0 0 0
81 1     1.4696011733e+02     1.9279705235e+01    -3.3676553241e-05     9.7151048011e-06    -8.9879218425e-07    -2.8012621897e-07    -3.1517461067e+00     1.9279705235e+01     2.2966781273e-04    -2.0902967029e-04    -6.3033951956e-04 3 0 0 0
82 1     1.1041731221e-01     2.5671623446e+01    -1.2903991413e-04    -9.4775679607e-06     1.2639301475e-06     5.7214566757e-07     1.1041731221e-01     2.5671623446e+01     1.6066138790e-04    -1.2724132472e-04    -5.0176920155e-04 3 0 0 0
83 1     1.3622014348e+02     3.7815108990e+01    -2.4229063278e-05     2.6193146857e-05    -7.6341560018e-07     9.0453543955e-08    -1.3891719951e+01     3.7815108990e+01     1.1204276815e-04    -2.7898824815e-04    -6.9846061399e-05 3 0 0 0
84 1     1.1846637056e+02     3.7933454857e+01    -7.6359142842e-05    -2.3698902571e-05    -1.6951541248e-07    -1.2469971494e-07    -3.1645492868e+01     3.7933454857e+01    -1.9893363527e-04    -8.0762813243e-04    -1.7167974574e-03 3 0 0 0
85 1     1.3265804605e+02     3.6398453551e+01    -4.4732352491e-05    -1.0028579901e-05    -4.8799696262e-07     1.2726051982e-07    -1.7453817382e+01     3.6398453551e+01    -2.4854720485e-04    -2.1569274809e-03    -2.6214766753e-04 3 0 0 0
86 1     1.4658336206e+02     2.7940295279e+01    -8.8789346811e-06    -2.9948231146e-05    -6.3239160706e-07     2.3102812621e-07    -3.5285013771e+00     2.7940295279e+01    -2.4498779160e-04    -1.8670080788e-04    -5.0274868948e-04 3 0 0 0
87 1     1.2145351845e+02     3.5607220962e+01    -3.2909541463e-05     1.8302068029e-05    -5.0388221458e-07    -3.4592118269e-07    -2.8658344983e+01     3.5607220962e+01     8.5894091714e-05    -3.8228937043e-04    -1.6251760536e-04 4 0 0 0
88 1     4.2135588028e+00     3.7750662476e+01    -4.1786732652e-05     5.0067437371e-05    -7.7471267610e-07    -2.9734052399e-07     4.2135588028e+00     3.7750662476e+01    -3.7337860950e-04    -8.6859366404e-04    -9.0010985165e-04 4 0 0 0
89 1     1.4014119825e+02     3.0440781287e+01    -5.8918318232e-05    -1.9980331132e-06    -1.5709749540e-07     2.8356453065e-07    -9.9706651804e+00     3.0440781287e+01     7.3771422331e-05    -4.1420705256e-05    -1.7110542986e-04 3 0 0 0
90 1     1.3651255141e+02     3.5836704970e+01    -3.2363007022e-05     2.4696218873e-05    -7.4746819740e-07     1.2038630328e-07    -1.3599312021e+01     3.5836704970e+01     2.5759124121e-04    -2.3686596891e-03    -1.9583694989e-03 4 0 0 0
91 1     1.1526031574e+02     3.4435176050e+01    -5.1161309970e-05    -3.4495898424e-05    -3.0617167203e-07    -2.7629527742e-08    -3.4851547689e+01     3.4435176050e+01    -1.1009233215e-04    -1.4972996422e-03    -1.1880398943e-03 5 0 0 0
92 1     1.4537828726e+02     2.6345455614e+01    -3.8001678425e-05    -7.9129294105e-06    -8.4917746117e-08    -1.6794019867e-07    -4.7335761699e+00     2.6345455614e+01    -2.7636357841e-05    -1.5852112809e-03    -4.8668624852e-04 5 0 0 0
93 1     1.2343355980e+02     3.5884951857e+01    -2.3551400223e-05    -3.7485102035e-05    -5.3814016088e-07    -3.0289834678e-07    -2.6678303635e+01     3.5884951857e+01     2.4309415785e-04    -3.7859758154e-04    -4.6483924164e-04 4 0 0 0
94 1     1.4685958135e+02     3.7094348196e+01    -2.6451139456e-05     8.6303477501e-06    -1.2906181970e-06    -1.4873307580e-08    -3.2522820794e+00     3.7094348196e+01     3.7290646518e-04    -1.5205424368e-03    -7.1605023126e-04 4 0 0 0
95 1     1.4243417572e+02     4.2309770966e+01     2.3631220647e-06     2.1587928634e-05     0.0000000000e+00     0.0000000000e+00    -7.6776877171e+00     4.2309770966e+01    -0.0000000000e+00    -0.0000000000e+00    -0.0000000000e+00 0 0 0 0
96 1     1.1438409395e+02     2.2682062186e+01    -9.9192230527e-05    -2.8237480870e-05     3.0241975293e-08     3.8778342321e-08    -3.5727769488e+01     2.2682062186e+01    -3.9731379665e-04    -1.1234831424e-03    -7.5248929772e-04 5 0 0 0
97 1     1.4716576935e+02     2.3491039047e+01    -7.3276612846e-05    -4.6822776778e-05    -2.5163076744e-07     7.1658744499e-07    -2.9460940845e+00     2.3491039047e+01     1.5963209148e-04    -3.6364472262e-04    -3.8650717373e-04 3 0 0 0
98 1     1.1743644442e+02     2.8884116073e+01    -1.1713707054e-04    -2.6737011600e-05    -7.9530135303e-09    -2.8436113979e-07    -3.2675419011e+01     2.8884116073e+01     2.4144562063e-04    -7.5115041696e-04    -7.0233738857e-04 3 0 0 0
99 1     1.3464849203e+02     3.6545468418e+01    -4.5246323348e-05    -1.1792600666e-05    -5.7713476346e-07     6.1904854158e-07    -1.5463371404e+01     3.6545468418e+01     6.6583583863e-04    -2.3606359572e-03    -2.0169572650e-03 4 0 0 0
100 1     1.4250979750e+02     3.0371345183e+01    -9.3753597956e-05    -1.9248620896e-05    -1.3426479727e-07     5.3312091062e-07    -7.6020659354e+00     3.0371345183e+01    -1.4843657760e-04    -8.9524803040e-04    -1.1778749306e-03 3 0 0 0
101 1     1.4920808348e+02     2.3948248552e+01    -5.5993343194e-05    -5.3245523405e-05     5.6252166634e-07     9.8475564508e-07    -9.0377995193e-01     2.3948248552e+01     1.9068276473e-04    -7.4622724946e-04    -9.6494812148e-04 4 0 0 0
102 1     1.4092002910e+02     3.7134419156e+01    -2.5629216466e-05     1.6901161032e-05    -8.1025228232e-07     5.3307498916e-07    -9.1918343284e+00     3.7134419156e+01     7.9895854602e-04    -9.1898781664e-04    -1.1947999279e-03 3 0 0 0
103 1     1.1939797224e+02     2.9266485442e+01    -1.0923950023e-04    -6.8109948876e-05    -9.4131747942e-08    -2.0458610889e-08    -3.0713891189e+01     2.9266485442e+01     8.6230812852e-04    -1.6878390698e-03    -1.7401214086e-03 5 0 0 0
104 1     1.2268370375e+02     3.4030982528e+01    -7.4945268812e-05    -1.6130512968e-05    -5.4533196654e-07    -3.6276099615e-07    -2.7428159682e+01     3.4030982528e+01     9.2667776123e-05    -1.1777787248e-04    -2.1744280645e-04 4 0 0 0
105 1     1.1618603356e+02     3.2665280910e+01    -9.5278441968e-05    -5.5167629090e-05     1.4272423834e-07     1.8320164079e-07    -3.3925829876e+01     3.2665280910e+01    -2.6838710835e-06    -1.5783726231e-03    -1.6104429125e-03 5 0 0 0
106 1     1.3828368424e+02     2.1433631000e+01    -6.5502043031e-05     1.8974376435e-05    -1.0265512942e-07    -2.3136339666e-07    -1.1828179194e+01     2.1433631000e+01    -1.7558624626e-04    -1.8733103372e-03    -1.9409308511e-03 5 0 0 0
107 1     1.1979820469e+02     2.7309874226e+01    -8.7669830836e-05    -6.2997470201e-05     8.0565550410e-08    -2.6487062608e-08    -3.0313658746e+01     2.7309874226e+01     2.9409951883e-04    -8.9837953880e-04    -1.2593377774e-03 4 0 0 0
108 1     1.2356177482e+02     2.1788591516e+01    -8.9077910981e-05    -5.0735215013e-05     4.9494696111e-07     4.0857200908e-08    -2.6550088614e+01     2.1788591516e+01     4.5197887007e-04    -3.0491347408e-03    -1.8305523120e-03 5 0 0 0
109 1     1.3351954460e+02     2.1762565014e+01    -7.2463528787e-05     1.2381929685e-04    -2.5157262740e-08    -1.2442216522e-06    -1.6592318829e+01     2.1762565014e+01     3.9404555028e-05    -1.1881321208e-03    -1.1240456082e-04 3 0 0 0
110 1     1.1159901252e+02     2.4246752078e+01    -1.0430703223e-04     4.4492908610e-05     2.1692211249e-07    -9.6776999242e-08    -3.8512850913e+01     2.4246752078e+01    -4.7655539554e-05    -6.3000472780e-04    -6.3150780970e-04 4 0 0 0
111 1     1.1945759881e+02     3.5490100659e+01    -3.2360189204e-05    -2.2285635375e-05    -5.0799998780e-07    -3.8129693798e-08    -3.0654264623e+01     3.5490100659e+01     1.2367903921e-04    -8.4402489042e-04    -8.0096576924e-04 4 0 0 0
112 1     1.3034252266e+02     1.9756424143e+01     3.5892776043e-06     7.3591974149e-05    -8.3381980209e-07    -9.5559599997e-07    -1.9769340770e+01     1.9756424143e+01     9.8826686475e-04    -1.1524779482e-03    -9.9974378446e-04 3 0 0 0
113 1     1.2438689970e+02     3.9721943864e+01    -3.5856934829e-05    -6.8180138967e-05    -7.7914109996e-07     4.9365828715e-07    -2.5724963734e+01     3.9721943864e+01     6.7768372099e-04    -2.7098064981e-03    -1.2461135746e-03 4 0 0 0
114 1     1.4414815320e+02     3.2814962630e+01    -1.8392307226e-04    -2.2636189136e-04     0.0000000000e+00     0.0000000000e+00    -5.9637102346e+00     3.2814962630e+01    -0.0000000000e+00    -0.0000000000e+00    -0.0000000000e+00 0 0 0 0
115 1     1.2287041015e+02     2.6621004794e+01    -8.7803843097e-05    -2.4511746859e-05     4.7995578008e-08     2.1932599028e-07    -2.7241453285e+01     2.6621004794e+01     2.1608750581e-04    -1.3925520966e-03    -1.1930870469e-03 4 0 0 0
116 1     1.1789348105e+02     3.3701743169e+01    -9.1467857212e-05    -6.7189014337e-05     9.9562681961e-08     2.9252453510e-07    -3.2218382384e+01     3.3701743169e+01     5.2909466057e-04    -1.7282660455e-03    -2.5293993314e-03 4 0 0 0
117 1     1.2061486573e+02     3.0853620208e+01    -1.3388867893e-04    -4.8978230037e-05    -2.4993608158e-07     8.9500859448e-08    -2.9496997699e+01     3.0853620208e+01     1.2759218535e-05    -1.1279300432e-05    -6.5826560125e-05 3 0 0 0
118 1     1.4072545810e+02     2.4836072550e+01    -6.0550033397e-05     4.3462199701e-05    -9.0076035132e-07    -5.3336349969e-07    -9.3864053312e+00     2.4836072550e+01     1.0316795134e-04    -1.4030569674e-04    -1.0878846037e-04 3 0 0 0
119 1     1.4492669758e+02     1.9205869149e+01    -3.1392100005e-05     7.2501620240e-05     0.0000000000e+00     0.0000000000e+00    -5.1851658506e+00     1.9205869149e+01    -0.0000000000e+00    -0.0000000000e+00    -0.0000000000e+00 0 0 0 0
120 1     1.3472401508e+02     2.6686343089e+01    -4.9649961329e-05    -2.9080913316e-05    -3.7946802326e-07     6.5023347376e-07    -1.5387848353e+01     2.6686343089e+01    -7.6708154898e-05    -5.5573439899e-04    -6.0757802756e-04 3 0 0 0
121 1     1.1264983432e+02     2.7088400618e+01    -1.2682289029e-04    -5.1080321935e-05     4.4966939898e-07     1.6103723572e-07    -3.7462029115e+01     2.7088400618e+01    -2.7825922722e-04    -1.9884594791e-03    -1.6699757573e-03 4 0 0 0