ITEM: TIMESTEP
5000
ITEM: NUMBER OF ATOMS
4556
ITEM: BOX BOUNDS pp ff pp
0.0000000000000000e+00 1.5011186343322501e+02
0.0000000000000000e+00 1.6691186343322499e+02
-1.0000000000000000e-02 1.0000000000000000e-02
ITEM: ATOMS id type x y vx vy fx fy xu yu c_shearStr[4] c_shearStr[1] c_shearStr[2] v_coordA v_coordB v_coordA_wall v_coordB_wall
1 1     3.8645107058e+01     3.2112242274e+00    -7.5055931717e-05     0.0000000000e+00     3.4586453725e-11     5.7813394608e-11     3.8645107058e+01     3.2112242274e+00     1.3519282798e-05    -1.2264112750e-05    -2.5524784962e-05 0 0 0 0
2 1     3.7905847734e+01     1.3528864139e+00    -7.5055931717e-05     0.0000000000e+00     2.6097361752e-05    -4.9940246666e-05     3.7905847734e+01     1.3528864139e+00    -5.7883085646e-06    -5.3316321409e-04    -1.3450328920e-04 0 0 0 0
3 1     1.6096936544e+01     4.3742392364e+00    -7.5055931717e-05     0.0000000000e+00     2.1834508626e-10     1.2576253840e-11     1.6096936544e+01     4.3742392364e+00    -7.4905184547e-04    -6.3932479935e-04    -2.9394948552e-03 0 0 0 0
4 1     3.1275617568e+01     1.4773988516e+01    -6.9960998890e-05     8.0920365162e-06    -1.3187775265e-07    -1.2553267640e-06     3.1275617568e+01     1.4773988516e+01    -7.8561706717e-04    -2.2838021779e-03    -8.5502576324e-04 4 0 0 0
5 1     2.3805646526e+01     1.9513295139e+01    -6.1127220446e-05     6.5227106722e-06    -1.3023714407e-06    -7.3863625367e-08     2.3805646526e+01     1.9513295139e+01    -6.6921153511e-04    -7.7218337551e-04    -1.2953850380e-03 4 0 0 0
6 1     1.9348524483e+01     6.9198837191e+00    -7.5055931717e-05     0.0000000000e+00    -3.5123006020e-06     2.5311579389e-06     1.9348524483e+01     6.9198837191e+00     2.7407437331e-04    -4.6652822856e-04    -8.8905433318e-04 0 0 0 0
7 1     1.2480941335e+01     1.8754170681e+01    -4.4635038845e-05     6.2098922817e-06    -1.2124967223e-06    -5.2454467310e-07     1.2480941335e+01     1.8754170681e+01    -4.6097724837e-04    -2.7444255078e-03    -1.4376338982e-03 5 0 0 0
8 1     3.1421980186e+01     1.6481722641e+02     7.5055931717e-05     0.0000000000e+00    -1.0622411262e-10     2.1238088631e-10     3.1421980186e+01     1.6481722641e+02    -6.6402769573e-04    -1.2472897863e-03    -1.0873764212e-03 0 0 0 0
9 1     3.0732061235e+01     5.2090817653e+00    -7.5055931717e-05     0.0000000000e+00     1.0322940658e-10    -1.1394439082e-10     3.0732061235e+01     5.2090817653e+00    -7.0902302885e-05    -1.6573630707e-03    -1.1841093292e-03 0 0 0 0
10 1     1.1011685416e+01     2.2163528861e+01    -3.5283621159e-05    -1.9511033019e-05    -8.5271711659e-07    -5.8317133292e-07     1.1011685416e+01     2.2163528861e+01    -7.4711101285e-04    -2.4735054565e-03    -1.9977956082e-03 4 0 0 0
11 1     3.7617267368e+01     1.2482108709e+01    -7.5879140469e-05     6.2687251753e-07     2.3301365321e-07    -3.9311803057e-08     3.7617267368e+01     1.2482108709e+01    -3.8877136770e-04    -1.4318188499e-03    -9.6244408146e-04 4 0 0 0
12 1     1.5201306492e+01     1.6628060032e+01    -5.9740770768e-05     1.1838136225e-05     3.6064341606e-07     3.1980951086e-08     1.5201306492e+01     1.6628060032e+01     3.0258220938e-04    -5.0875159846e-04    -1.1165688278e-03 4 0 0 0
13 1     3.6010098062e+01     8.9648561559e+00    -7.5406231102e-05     6.2903411633e-07    -3.4534574802e-08     3.0064383400e-09     3.6010098062e+01     8.9648561559e+00    -2.2669886818e-04    -5.9425487088e-04    -7.2400049250e-04 3 0 1 0
14 1     2.2982863145e+01     1.7694032205e+01    -7.0859848463e-05     9.1719273182e-06    -4.6599474066e-07    -3.9105407943e-07     2.2982863145e+01     1.7694032205e+01    -1.2027812087e-04    -1.1806452274e-03    -1.5907626818e-03 4 0 0 0
15 1     1.4830144346e+01     2.8319759939e+00    -7.5055931717e-05     0.0000000000e+00     7.1511195294e-11     1.4863418699e-10     1.4830144346e+01     2.8319759939e+00    -6.2838363172e-04    -2.4800465141e-03    -1.5099491265e-03 0 0 0 0
16 1     1.0223658475e+00     4.9192654574e+00    -7.5055931717e-05     0.0000000000e+00     5.0329089475e-11     2.6179948240e-10     1.0223658475e+00     4.9192654574e+00    -1.7274196138e-04    -3.5912480470e-04    -4.6945579839e-04 0 0 0 0
17 1     2.5158253471e+00     1.1244851830e+01    -8.3030149145e-05    -8.0897063044e-06    -3.0750213744e-08    -5.5350103022e-07     2.5158253471e+00     1.1244851830e+01    -1.2750833887e-04    -9.2903074883e-04    -1.2929980873e-03 4 0 0 0
18 1     8.0082079408e+00     1.5735417800e+01    -8.6101434310e-05    -3.4679773974e-05    -1.3086069881e-06     1.6059650309e-07     8.0082079408e+00     1.5735417800e+01    -1.1897712652e-05    -1.8396068524e-04    -1.6007676424e-04 3 0 0 0
19 1     4.6091269998e+00     4.3223698403e+00    -7.5055931717e-05     0.0000000000e+00    -1.4644053494e-11     1.7252551156e-10     4.6091269998e+00     4.3223698403e+00     3.6123978630e-04    -1.1747231389e-03    -1.0873236339e-03 0 0 0 0
20 1     3.0839665716e+01     1.2823180373e+01    -6.3033522183e-05     6.6066044496e-06    -1.3241961892e-06    -1.0363824804e-06     3.0839665716e+01     1.2823180373e+01     5.4258405834e-04    -5.5888763876e-04    -1.0289795363e-03 3 0 0 0
21 1     2.5947961968e+01     1.6484414677e+02     7.5055931717e-05     0.0000000000e+00    -9.8739875735e-11     1.5511139097e-10     2.5947961968e+01     1.6484414677e+02     8.3295093640e-11    -5.3023489403e-11    -1.3084903884e-10 0 0 0 0
22 1     3.4383925634e+01     4.5956165588e+00    -7.5055931717e-05     0.0000000000e+00     7.4207819204e-11     8.6771861885e-11     3.4383925634e+01     4.5956165588e+00     5.1186546767e-04    -1.0231557455e-03    -8.7467147044e-04 0 0 0 0
23 1     3.6353276304e+01     1.0933651744e+01    -7.6530659841e-05     1.0176411233e-06     4.8011722758e-07    -1.0457660730e-07     3.6353276304e+01     1.0933651744e+01     2.9429001124e-06    -1.1167638637e-03    -6.9688875626e-04 5 0 0 0
24 1     2.1014053446e+01     1.8031449455e+01    -6.9200875300e-05     1.8097916903e-05    -4.0073641659e-07     5.7657749790e-08     2.1014053446e+01     1.8031449455e+01     7.1874031432e-05    -1.1525575914e-03    -6.0386177383e-04 4 0 0 0
25 1     1.1442761206e+01     7.2423694996e-01    -7.5055931717e-05     0.0000000000e+00     4.0920698298e-04    -7.3620822643e-04     1.1442761206e+01     7.2423694996e-01    -6.8215748292e-04    -2.3351115324e-03    -6.4276675663e-04 0 0 0 0
26 1     1.8209283598e+01     8.5612374168e+00    -7.4458810445e-05     5.6940248145e-07    -8.7773948071e-09    -9.4922457832e-09     1.8209283598e+01     8.5612374168e+00    -1.6338730824e-03    -1.3699346099e-03    -3.4498633094e-03 1 0 2 0
27 1     3.7695467413e+01     4.9713156843e+00    -7.5055931717e-05     0.0000000000e+00     6.7621548660e-11     7.7566703061e-11     3.7695467413e+01     4.9713156843e+00    -1.1616815917e-03    -1.1553665008e-03    -1.5891106163e-03 0 0 0 0
28 1     6.3378958920e+00     1.9685068512e+01    -3.6538693538e-05    -4.0340442407e-05    -1.5383092527e-06    -1.7457285151e-07     6.3378958920e+00     1.9685068512e+01     6.2925162586e-05    -1.4336058256e-03    -1.0751627037e-03 5 0 0 0
29 1     3.8325613977e+01     1.0613619896e+01    -7.6475316510e-05     3.3131565018e-07     4.6159180419e-07     4.8840040535e-08     3.8325613977e+01     1.0613619896e+01     6.3261140528e-04    -1.1274298704e-03    -7.3872653045e-04 4 0 0 0
30 1     3.4381880071e+01     1.1257815049e+01    -7.6576443574e-05     1.8163194905e-06     5.5373948247e-07    -3.4332202240e-07     3.4381880071e+01     1.1257815049e+01    -4.6156546149e-04    -1.8423292377e-03    -1.2662722978e-03 5 0 0 0
31 1     2.3549549261e+00     1.9787540183e+01    -2.9798866496e-05    -4.8772975989e-06    -1.7831836829e-06    -5.5883729408e-07     2.3549549261e+00     1.9787540183e+01     4.3112128510e-04    -9.9999441930e-04    -9.2935463574e-04 5 0 0 0
32 1     1.0924756439e+01     2.6547535874e+00    -7.5055931717e-05     0.0000000000e+00     3.3941905954e-12     2.2678694906e-10     1.0924756439e+01     2.6547535874e+00     1.7914031328e-05    -4.1528240076e-04    -5.5644750983e-04 0 0 0 0
33 1     6.2171423765e+00     1.4846468674e+01    -9.2368542852e-05    -2.0577092535e-05    -2.4912327922e-07    -1.9009699657e-06     6.2171423765e+00     1.4846468674e+01     1.8483604591e-05    -2.2994709960e-04    -1.2939297262e-04 3 0 0 0
34 1     3.0494994465e+01     3.2255158457e+00    -7.5055931717e-05     0.0000000000e+00    -4.9289389071e-11    -6.7209510201e-11     3.0494994465e+01     3.2255158457e+00     6.5636280333e-04    -1.2566277592e-03    -1.4201083335e-03 0 0 0 0
35 1     2.2265690048e+01     1.6581595320e+02     7.5055931717e-05     0.0000000000e+00    -1.6568355077e-05     3.4031997702e-04     2.2265690048e+01     1.6581595320e+02    -3.3670644299e-05    -3.9192663782e-04    -2.2863354683e-04 0 0 0 0
36 1     1.8779187882e+01     2.2377843337e+00    -7.5055931717e-05     0.0000000000e+00    -1.0373102984e-11     9.2899387185e-12     1.8779187882e+01     2.2377843337e+00    -2.9641839555e-04    -2.2459203534e-03    -2.3012649839e-03 0 0 0 0
37 1     2.7083704901e+01     6.4414873967e+00    -7.5055931717e-05     0.0000000000e+00     4.6895941991e-11     6.5692988267e-11     2.7083704901e+01     6.4414873967e+00     1.6827044915e-04    -3.0681971997e-03    -2.1635512942e-03 0 0 0 0
38 1     1.3785209642e+01     1.2899255460e+01    -1.9777321147e-05    -6.2988878862e-07    -4.0748385177e-08     2.0136196017e-07     1.3785209642e+01     1.2899255460e+01     3.5079696447e-05    -1.9735034389e-04    -1.1210121486e-03 3 0 0 0
39 1     3.4037240609e+01     9.2899664186e+00    -7.5220960906e-05     9.6689565496e-07    -4.1901646644e-08    -1.2268496735e-07     3.4037240609e+01     9.2899664186e+00    -1.8192025393e-04    -4.8328900864e-04    -1.0345267468e-03 2 0 2 0
40 1     2.9529262463e+00     5.4399711013e+00    -7.5055931717e-05     0.0000000000e+00     3.4245018713e-11     1.9271424685e-10     2.9529262463e+00     5.4399711013e+00     3.4969338981e-04    -1.4964299050e-03    -2.0521201351e-03 0 0 0 0
41 1     3.7063963331e+01     6.8680912685e+00    -7.5055931717e-05     0.0000000000e+00     7.2857565078e-06     1.4093623416e-05     3.7063963331e+01     6.8680912685e+00     5.7309285992e-05    -1.3049319063e-03    -3.8764210684e-04 0 0 0 0
42 1     9.3059910202e+00     1.2959453937e+01    -8.6610968278e-05     3.6275791268e-06    -2.9514070575e-07    -7.8920233443e-07     9.3059910202e+00     1.2959453937e+01    -1.2753724910e-04    -1.6278648479e-03    -1.3238691512e-03 4 0 0 0
43 1     1.3220172070e+01     1.6896823621e+01    -6.2577583470e-05    -1.9579555010e-06     3.7710295252e-07     8.8803231570e-08     1.3220172070e+01     1.6896823621e+01     7.0574115838e-06    -2.5260568712e-04    -4.2092217139e-04 3 0 0 0
44 1     2.0837405331e+01     5.5868714427e+00    -7.5055931717e-05     0.0000000000e+00    -2.3369661891e-11    -1.9355065212e-10     2.0837405331e+01     5.5868714427e+00     2.8912095390e-04    -8.3650936028e-04    -2.8214857216e-04 0 0 0 0
45 1     3.7155621770e+01     1.4520675801e+01     0.0000000000e+00     0.0000000000e+00     0.0000000000e+00     0.0000000000e+00     3.7155621770e+01     1.4520675801e+01    -0.0000000000e+00    -0.0000000000e+00    -0.0000000000e+00 0 0 0 0
46 1     2.0605143701e+01     1.3925448428e+01    -7.4744986130e-05     2.9068884383e-06    -4.2529709720e-07     1.1106261638e-07     2.0605143701e+01     1.3925448428e+01    -3.7672094918e-04    -1.7469521427e-03    -2.6585841658e-03 4 0 0 0
47 1     1.6800087054e+01     2.5049633891e+00    -7.5055931717e-05     0.0000000000e+00     1.4964162288e-11    -5.1547469526e-11     1.6800087054e+01     2.5049633891e+00     7.2037811003e-04    -1.6715200678e-03    -1.2988783601e-03 0 0 0 0
48 1     4.6112304025e+00     1.8366497930e+00    -7.5055931717e-05     0.0000000000e+00     1.0915245053e-11     2.6310221542e-10     4.6112304025e+00     1.8366497930e+00    -2.3038916619e-05    -1.5177221803e-03    -7.2388083060e-04 0 0 0 0
49 1     3.7982867411e+01     8.6434332564e+00    -7.5529764711e-05     1.8831335545e-07    -2.6985219810e-08     9.0711597389e-08     3.7982867411e+01     8.6434332564e+00    -1.8011450268e-04    -8.1079998047e-04    -2.8048120022e-04 3 0 1 0
50 1     3.0007080403e+01     9.4820039843e+00    -7.6055812524e-05     6.0716989776e-08     4.3725348627e-07    -1.6030355966e-08     3.0007080403e+01     9.4820039843e+00    -2.6068088268e-04    -7.3819314457e-04    -1.4607438651e-03 2 0 1 0
51 1     1.4617111239e+01     1.4716414555e+01    -3.5870389197e-05     5.5818114368e-06     2.3223901440e-08     1.5736416300e-07     1.4617111239e+01     1.4716414555e+01    -3.0407869042e-04    -1.3330243673e-03    -5.6432718337e-04 4 0 0 0
52 1     4.3424092628e+00     1.9583367906e+01    -3.5244593758e-05    -4.2553902989e-05    -1.6513753865e-06    -3.8940608136e-07     4.3424092628e+00     1.9583367906e+01     7.1724578518e-05    -1.0198539575e-03    -8.9226022249e-05 3 0 0 0
53 1     3.5645937805e+01     1.2803755718e+01    -7.5867814956e-05     1.3826129533e-06     2.5293591010e-07    -1.0593206650e-07     3.5645937805e+01     1.2803755718e+01    -1.7397640334e-05    -1.0088415640e-03    -1.4137552296e-03 4 0 0 0
54 1     1.9359171642e+01     1.9150796929e+01    -5.1857211702e-05     4.2679071358e-05    -6.3351587130e-07    -2.4753544259e-07     1.9359171642e+01     1.9150796929e+01    -4.5437797462e-04    -1.0883772493e-03    -1.3241418488e-03 3 0 0 0
55 1     1.5830194868e+01     1.2915647232e+01     0.0000000000e+00     0.0000000000e+00     0.0000000000e+00     0.0000000000e+00     1.5830194868e+01     1.2915647232e+01    -0.0000000000e+00    -0.0000000000e+00    -0.0000000000e+00 0 0 0 0
56 1     3.3917675459e+01     2.0011160616e+00    -7.5055931717e-05     0.0000000000e+00     0.0000000000e+00     0.0000000000e+00     3.3917675459e+01     2.0011160616e+00    -0.0000000000e+00    -0.0000000000e+00    -0.0000000000e+00 0 0 0 0
57 1     6.1735958027e+00     3.0817207393e+00    -7.5055931717e-05     0.0000000000e+00     3.2451701713e-11     2.3395617388e-10     6.1735958027e+00     3.0817207393e+00     3.5210996434e-04    -2.1032864796e-03    -6.0841752913e-04 0 0 0 0
58 1     1.1557263846e+01     6.8395147321e+00    -7.5055931717e-05     0.0000000000e+00    -1.0593550592e-06     1.4556110566e-05     1.1557263846e+01     6.8395147321e+00    -6.4641510765e-04    -1.7705122464e-03    -2.5667475646e-03 0 0 0 0
59 1     3.0115640151e+00     6.3987682713e-01    -7.5055931717e-05     0.0000000000e+00     6.2928183908e-04    -5.1127909885e-04     3.0115640151e+00     6.3987682713e-01    -4.9496424275e-05    -1.6151378466e-03    -2.3365401782e-04 0 0 0 0
60 1     9.4688477462e+00     4.3983764653e-01    -7.5055931717e-05     0.0000000000e+00    -8.5106355857e-04    -1.5094384915e-03     9.4688477462e+00     4.3983764653e-01     4.1511035386e-04    -1.6571507190e-03    -1.4643610805e-03 0 0 0 0
61 1     4.2858912632e+00     1.5364267873e+01    -8.7456851397e-05    -6.9117902147e-06     8.5822968925e-08    -7.4299899602e-07     4.2858912632e+00     1.5364267873e+01    -5.3473537098e-04    -8.9146135517e-04    -1.3239152439e-03 4 0 0 0
62 1     2.3911949100e+01     1.6468224172e+02     7.5055931717e-05     0.0000000000e+00     1.4173284980e-04     4.2262860797e-04     2.3911949100e+01     1.6468224172e+02     1.7968772258e-04    -4.1223276046e-04    -6.2048606877e-04 0 0 0 0
63 1     2.8898656772e+01     2.0225530352e+00    -7.5055931717e-05     0.0000000000e+00    -3.6519804514e-11    -4.6982387897e-11     2.8898656772e+01     2.0225530352e+00     1.0615344054e-04    -7.5605936826e-04    -3.5808834668e-04 0 0 0 0
64 1     1.9036832546e+01     1.0372838971e+01    -7.7291716159e-05     2.5275966512e-06     1.2193015995e-07    -8.4522647910e-08     1.9036832546e+01     1.0372838971e+01    -1.1504473448e-03    -2.0649499342e-03    -3.6317283227e-03 5 0 0 0
65 1     5.2758201117e+00     1.0836231382e+01    -9.4242387443e-05    -1.0354598901e-05    -9.3471283857e-07    -1.0411346669e-06     5.2758201117e+00     1.0836231382e+01    -1.2047746182e-05    -5.0461289358e-04    -8.3429106297e-04 4 0 0 0
66 1     1.3117279730e+01     2.0648123315e+01    -4.9326658428e-05     9.9818788997e-06    -1.3687255397e-06    -3.8406098463e-07     1.3117279730e+01     2.0648123315e+01    -1.2474285463e-04    -1.7097007999e-04    -1.1726270551e-03 4 0 0 0
67 1     3.1880938614e+01     1.7893191565e+00    -7.5055931717e-05     0.0000000000e+00     6.0638622960e-04    -1.1224699453e-03     3.1880938614e+01     1.7893191565e+00     2.7856312610e-04    -6.2625539599e-04    -1.0285561462e-03 0 0 0 0
68 1     2.8003081781e+01     9.1934780597e+00     0.0000000000e+00     0.0000000000e+00     0.0000000000e+00     0.0000000000e+00     2.8003081781e+01     9.1934780597e+00    -0.0000000000e+00    -0.0000000000e+00    -0.0000000000e+00 0 0 0 0
69 1     2.2160998302e+01     9.0036258172e-01    -7.5055931717e-05     0.0000000000e+00     1.6568148325e-05    -3.4032003515e-04     2.2160998302e+01     9.0036258172e-01    -5.8069845230e-04    -8.8166681708e-04    -5.0981223365e-04 0 0 0 0
70 1     3.2626191501e+01     3.6431488134e+00    -7.5055931717e-05     0.0000000000e+00     8.3530889484e-11     1.6390426343e-11     3.2626191501e+01     3.6431488134e+00    -2.6422962460e-04    -2.2246404611e-04    -8.3478192741e-04 0 0 0 0
71 1     9.8198127002e+00     1.4889051872e+01    -6.9392329070e-05     1.3386781949e-06    -1.6152805088e-06    -4.4196127195e-07     9.8198127002e+00     1.4889051872e+01    -4.8865943702e-04    -2.8431452514e-04    -1.5438555812e-03 3 0 0 0
72 1     1.3151045547e+01     1.7545856432e+00    -7.5055931717e-05     0.0000000000e+00     6.2205311191e-11     1.5216301742e-10     1.3151045547e+01     1.7545856432e+00    -1.0971973694e-03    -1.8344939521e-03    -7.1335467435e-04 0 0 0 0
73 1     1.2997917662e+01     1.6637341793e+02     7.5055931717e-05     0.0000000000e+00     8.0769806326e-06     6.4580524682e-04     1.2997917662e+01     1.6637341793e+02    -8.0659166892e-06    -1.0087910125e-07    -6.4492061518e-04 0 0 0 0
74 1     2.2688221355e+01     4.8342370827e+00    -7.5055931717e-05     0.0000000000e+00     9.3523036903e-11     8.5207379455e-11     2.2688221355e+01     4.8342370827e+00    -9.6070948848e-05    -1.4488644356e-03    -1.0962280727e-03 0 0 0 0
75 1     3.5157427345e+01     1.4739620134e+01    -6.5871480354e-05     4.1063005256e-06    -6.4525111916e-07    -2.6372720452e-07     3.5157427345e+01     1.4739620134e+01     1.4549775105e-04    -5.3099820291e-04    -1.7688314639e-03 4 0 0 0
76 1     9.7892728453e-01     1.2521667583e+01    -7.7543860455e-05    -2.9906832533e-06     6.9117503912e-08    -5.2977634173e-07     9.7892728453e-01     1.2521667583e+01    -1.1381131070e-04    -8.2719771443e-04    -1.0915086505e-03 4 0 0 0
77 1     1.7558472853e+01     6.5757602125e-01    -7.5055931717e-05     0.0000000000e+00     1.0494912667e-04    -1.2106157261e-03     1.7558472853e+01     6.5757602125e-01    -1.0426244854e-04    -1.4660290970e-03    -1.1656535645e-03 0 0 0 0
78 1     5.2811887658e+00     2.1380962827e+01    -2.0223167317e-05    -3.0431953232e-05    -7.6034954285e-07     1.7059262771e-07     5.2811887658e+00     2.1380962827e+01     2.4831956922e-04    -1.1348588195e-03    -4.9260080197e-04 3 0 0 0
79 1     1.5354732482e+01     8.6315140053e+00    -7.5514683912e-05     9.6317268566e-07    -7.9590459619e-08    -3.8975482142e-08     1.5354732482e+01     8.6315140053e+00     6.2749925851e-04    -9.1909627016e-04    -1.7079052098e-03 2 0 2 0
80 1     3.2681122545e+01     5.6409349930e+00    -7.5055931717e-05     0.0000000000e+00     9.8843907763e-11     6.5523498031e-11     3.2681122545e+01     5.6409349930e+00    -2.6010963519e-04    -1.8623200182e-03    -1.2864598018e-03 0 0 0 0
81 1     3.8109865168e+01     1.8960111146e+01    -6.3247679369e-05     3.4567690110e-06    -9.4942400722e-07    -7.1347862100e-07     3.8109865168e+01     1.8960111146e+01     1.1203710616e-04    -6.2948391223e-04    -6.0360209028e-05 3 0 0 0
82 1     3.8360523461e+01     2.5463466542e+01    -2.7158952554e-05     5.6710236257e-06    -1.1521100237e-06    -3.6447288343e-07     3.8360523461e+01     2.5463466542e+01     2.2653339661e-04    -5.0391277509e-04    -1.5575556888e-04 4 0 0 0
83 1     1.8582053184e+01     3.6196418574e+01    -7.0510375303e-08     1.0254338253e-05    -1.6161651532e-07     3.7891720192e-07     1.8582053184e+01     3.6196418574e+01     9.1878512875e-05    -2.6408462354e-03    -4.1625956540e-03 5 0 0 0
84 1     2.1107309143e+00     3.6269716256e+01    -1.6919722448e-06     3.7163152335e-06    -2.2159968982e-07    -1.1039286093e-08     2.1107309143e+00     3.6269716256e+01    -3.3030439903e-04    -4.3993118375e-04    -1.9246426829e-03 4 0 0 0
85 1     1.6597406545e+01     3.5998185258e+01     7.2547054416e-07     9.2854195747e-06    -1.7268972303e-07     4.8017213732e-07     1.6597406545e+01     3.5998185258e+01    -9.1899890529e-04    -3.2343891490e-03    -7.6020096197e-04 4 0 0 0
86 1     3.4622911913e+01     2.8656785890e+01    -2.0922139192e-05     8.1892354223e-06    -9.3645851054e-07     2.7095044878e-07     3.4622911913e+01     2.8656785890e+01    -2.0876197430e-04    -1.9697235404e-04    -6.7898709001e-04 3 0 0 0
87 1     5.3053604259e+00     3.6392523612e+01    -4.8135764952e-06     3.0301337037e-06    -1.1131668198e-07     1.3895510893e-07     5.3053604259e+00     3.6392523612e+01     3.2640903393e-04    -5.1516127565e-04    -1.2596002745e-03 4 0 0 0
88 1     3.8714000840e+01     3.8018833456e+01     7.9865696020e-07     7.1265947801e-07     1.4514212037e-07     2.5697058807e-08     3.8714000840e+01     3.8018833456e+01    -4.1144099503e-05    -3.2348348600e-05    -1.2828198700e-04 4 0 0 0
89 1     2.7102228276e+01     3.2340383692e+01    -3.0304214724e-05     8.8102288781e-06    -2.0216503856e-06     3.5085863240e-07     2.7102228276e+01     3.2340383692e+01     4.4241261861e-05    -1.0044462518e-04    -8.2061605785e-04 3 0 0 0
90 1     2.0571777741e+01     3.6005618760e+01    -7.1888504752e-07     7.8065906026e-06    -1.6167411476e-07     2.6580715670e-07     2.0571777741e+01     3.6005618760e+01    -3.0848650140e-05    -8.2321199988e-04    -8.5912315785e-04 5 0 0 0
91 1     5.4461620064e-01     3.1753290657e+01    -1.1158175305e-06     1.8484340026e-06     6.2054568927e-07    -5.4711295286e-07     5.4461620064e-01     3.1753290657e+01    -5.2515807760e-04    -8.0256483512e-04    -1.7690127553e-03 3 0 0 0
92 1     3.3807659263e+01     2.6832090873e+01    -2.5234851539e-05     9.3490188381e-06    -8.9836733602e-07     2.3577130327e-07     3.3807659263e+01     2.6832090873e+01     2.4559361782e-04    -7.2153835498e-04    -1.0766063615e-03 4 0 0 0
93 1     7.3008287572e+00     3.6267317949e+01    -4.4518291287e-06     1.4349639252e-05    -7.9921754050e-08     4.3231290605e-07     7.3008287572e+00     3.6267317949e+01     3.1926460532e-05    -2.1773906020e-04    -2.8958708755e-04 3 0 0 0
94 1     2.9179037392e+01     3.9392293470e+01     1.6765738441e-06     5.6000195753e-06     2.4933841319e-08     2.8366602257e-07     2.9179037392e+01     3.9392293470e+01    -3.3901485038e-04    -2.3818674960e-03    -8.4304467883e-04 4 0 0 0
95 1     2.3354670457e+01     4.3190382434e+01     1.2954418633e-06     2.3610143824e-06     8.8723095629e-08     2.2143785937e-07     2.3354670457e+01     4.3190382434e+01    -2.3757696490e-04    -6.6264059136e-04    -3.1173135615e-04 4 0 0 0
96 1     7.0340846320e+00     2.2340519807e+01    -3.5470801544e-05    -2.2244388420e-06    -7.3229070343e-07    -1.3146229011e-07     7.0340846320e+00     2.2340519807e+01     2.0646974993e-04    -1.4032395412e-03    -5.9060095763e-04 5 0 0 0
97 1     3.6575726510e+01     2.4089503113e+01    -4.4386316843e-05     1.5549566717e-06    -1.4560634834e-06    -3.7883498790e-07     3.6575726510e+01     2.4089503113e+01     1.7256209291e-04    -5.9117307150e-04    -2.6472080102e-04 4 0 0 0
98 1     6.1914808379e+00     2.9102911815e+01     1.8350624246e-06     4.1845161690e-06    -2.0442129203e-07    -5.1707450147e-08     6.1914808379e+00     2.9102911815e+01    -4.0162012583e-04    -1.1953178298e-03    -1.3306796784e-03 5 0 0 0
99 1     1.7418500426e+01     3.7819560154e+01     4.9086817759e-07     9.4650176341e-06    -9.8824667690e-08     4.6024874159e-07     1.7418500426e+01     3.7819560154e+01     3.4690829693e-04    -1.0787256419e-03    -2.0730945520e-03 5 0 0 0
100 1     2.9423913828e+01     3.3423053825e+01     0.0000000000e+00     0.0000000000e+00     0.0000000000e+00     0.0000000000e+00     2.9423913828e+01     3.3423053825e+01    -0.0000000000e+00    -0.0000000000e+00    -0.0000000000e+00 0 0 0 0
101 1     3.8475071748e+01     2.3466814817e+01    -4.3664920565e-05     4.6422741286e-06    -1.2888389724e-06    -3.1887965961e-07     3.8475071748e+01     2.3466814817e+01    -1.5650726258e-04    -7.5225400357e-04    -5.0499309644e-04 5 0 0 0
102 1     2.1657543825e+01     3.9743388282e+01     2.2383194005e-06     5.8647932721e-06    -1.1785682358e-08     2.9568654616e-07     2.1657543825e+01     3.9743388282e+01    -6.9979049930e-04    -2.4437177561e-03    -1.8212616294e-03 4 0 0 0
103 1     7.5679624516e+00     3.0549896129e+01    -3.6762199196e-06     9.9030887104e-06    -4.9174024774e-07     2.5758798869e-07     7.5679624516e+00     3.0549896129e+01    -3.0985410086e-04    -1.4659801380e-03    -1.3683958850e-03 5 0 0 0
104 1     8.2629131177e+00     3.4514781064e+01    -5.7891808240e-06     1.4021870814e-05    -1.5461192520e-07     3.6414496835e-07     8.2629131177e+00     3.4514781064e+01     2.6966891783e-05    -9.7620238136e-04    -6.6757288895e-04 4 0 0 0
105 1     2.9016654537e+00     3.1293219093e+01    -5.6171335879e-06     4.6313849516e-06    -7.4673704118e-07     3.7077475294e-07     2.9016654537e+00     3.1293219093e+01    -3.7958875260e-04    -4.4097053468e-04    -5.7431570368e-04 3 0 0 0
106 1     2.9661795550e+01     2.1971151819e+01    -5.0670231263e-05     5.8426031862e-06    -1.4318027313e-06    -2.5479886226e-07     2.9661795550e+01     2.1971151819e+01     1.1264200682e-03    -2.6948295691e-03    -1.9639362402e-03 4 0 0 0
107 1     1.0402489886e+01     2.6918775505e+01    -1.1976917506e-05    -1.4761432409e-05    -8.5207775910e-07    -6.5093537500e-07     1.0402489886e+01     2.6918775505e+01     2.7957854837e-04    -7.4743263089e-04    -6.5341047160e-04 3 0 0 0
108 1     1.4973622330e+01     2.1391916343e+01    -4.9026801893e-05     1.2203314335e-05    -1.3851983006e-06    -3.2470700891e-07     1.4973622330e+01     2.1391916343e+01     3.3336242724e-05    -9.2484263079e-04    -2.2783533226e-03 5 0 0 0
109 1     2.4950129077e+01     2.1149115878e+01    -5.2843281159e-05     2.8192621659e-06    -1.5275437303e-06     2.0135097049e-08     2.4950129077e+01     2.1149115878e+01     2.5034803833e-04    -2.6609223709e-03    -3.0038296360e-03 5 0 0 0
110 1     2.3017106963e+00     2.4397481542e+01    -6.3923936775e-07    -1.8257990341e-06     4.5348924778e-07    -5.1352696589e-07     2.3017106963e+00     2.4397481542e+01     2.3502200147e-05    -7.7760993708e-06    -8.4879275399e-05 3 0 0 0
111 1     3.7481347279e+00     3.5121492013e+01    -2.4141548700e-06     3.3593055246e-06    -1.3768396431e-07     1.3180082466e-07     3.7481347279e+00     3.5121492013e+01     2.7902666693e-05    -4.8445804274e-05    -2.2226707051e-05 3 0 0 0
112 1     2.1835933323e+01     1.9854166061e+01    -6.0947460964e-05     1.4988205826e-05    -1.2286855592e-06     4.4444496030e-07     2.1835933323e+01     1.9854166061e+01     1.4130917382e-04    -4.3688211629e-04    -2.5597111910e-04 3 0 0 0
113 1     8.0358091268e+00     3.8126656694e+01     1.1475229419e-06     1.1718639670e-05    -8.0980823577e-08     4.4500350958e-07     8.0358091268e+00     3.8126656694e+01     5.2761477390e-04    -9.0040759008e-04    -1.2579065602e-03 4 0 0 0
114 1     2.9550504708e+01     3.5419111286e+01     0.0000000000e+00     0.0000000000e+00     0.0000000000e+00     0.0000000000e+00     2.9550504708e+01     3.5419111286e+01    -0.0000000000e+00    -0.0000000000e+00    -0.0000000000e+00 0 0 0 0
115 1     1.2360237974e+01     2.7320616048e+01    -1.7374662940e-05     1.4691651381e-05    -9.3374271582e-07    -2.3143723759e-07     1.2360237974e+01     2.7320616048e+01     5.5056318326e-04    -1.2815328495e-03    -1.1810437809e-03 4 0 0 0
116 1     3.7081232758e+00     3.3121913866e+01    -3.0863130541e-06     3.4583063242e-06    -1.7143126780e-07     1.3670428038e-07     3.7081232758e+00     3.3121913866e+01     1.8304065192e-04    -2.1279963554e-03    -9.0065320316e-04 5 0 0 0
117 1     7.7486835642e+00     3.2539588015e+01     2.6008690445e-06     9.5092425538e-06    -1.3144595948e-07     2.1029105728e-07     7.7486835642e+00     3.2539588015e+01     1.6287203589e-04    -9.1073202658e-04    -8.5676117612e-04 3 0 0 0
118 1     3.0179036038e+01     2.6151928104e+01    -3.7291581372e-05     2.7502067154e-05    -1.5918580131e-06     1.2039078919e-06     3.0179036038e+01     2.6151928104e+01    -3.5152708105e-04    -5.5062847344e-04    -7.8391844946e-04 4 0 0 0
119 1     3.6161544254e+01     1.9406467918e+01    -6.2408414336e-05     5.8839638476e-06    -8.8466421508e-07    -3.2941594554e-07     3.6161544254e+01     1.9406467918e+01    -9.1891260301e-05    -7.0709121041e-04    -2.9796440576e-04 4 0 0 0
120 1     2.5049145700e+01     2.5920229371e+01    -1.6259942593e-05     6.5312444838e-06    -7.3989368218e-07     1.7449374859e-07     2.5049145700e+01     2.5920229371e+01     4.6171709865e-04    -1.1791074962e-03    -2.6444267387e-03 4 0 0 0
121 1     3.9208277278e+00     2.5896644784e+01     7.7910549732e-06     2.9152907409e-05     1.3724654540e-07     3.0989262627e-07     3.9208277278e+00     2.5896644784e+01     3.9515279213e-04    -1.5719182199e-03    -6.3979901113e-04 3 0 0 0