ITEM: TIMESTEP
0
ITEM: NUMBER OF ATOMS
4556
ITEM: BOX BOUNDS pp ff pp
0.0000000000000000e+00 1.5011186343322501e+02
0.0000000000000000e+00 1.6691186343322499e+02
-1.0000000000000000e-02 1.0000000000000000e-02
ITEM: ATOMS id type x y vx vy fx fy xu yu c_shearStr[4] c_shearStr[1] c_shearStr[2] v_coordA v_coordB v_coordA_wall v_coordB_wall
1 1     7.3550373488e+00     7.9419143216e+00    -7.5055931717e-05     0.0000000000e+00     6.3595875199e-05     1.3733967180e-05     7.3550373488e+00     7.9419143216e+00    -9.2767043330e-04    -2.4276235156e-03    -1.7426891019e-03 0 0 0 0
2 1     2.6165961125e+01     1.7153576389e+01     0.0000000000e+00     0.0000000000e+00    -1.0511113328e-11     5.2536254427e-12     2.6165961125e+01     1.7153576389e+01    -9.7590372926e-04    -1.4226009339e-03    -1.5441763010e-03 4 0 0 0
3 1     1.1792581210e+01     1.1701032184e+01     0.0000000000e+00     0.0000000000e+00     1.0064348389e-11     1.9705828766e-12     1.1792581210e+01     1.1701032184e+01    -1.6076641338e-05    -2.0669175265e-03    -1.0990788555e-03 3 0 0 0
4 1     2.1377057499e+01     7.8241611951e+00    -7.5055931717e-05     0.0000000000e+00     8.6505963688e-05    -4.7662769091e-06     2.1377057499e+01     7.8241611951e+00     5.5614347716e-04    -1.7490327297e-03    -2.3843770744e-03 0 0 0 0
5 1     1.8158432750e+01     9.6641203943e+00     0.0000000000e+00     0.0000000000e+00    -6.1050133181e-06     2.0516990415e-05     1.8158432750e+01     9.6641203943e+00     1.3896595169e-04    -1.7272774410e-03    -8.5966179707e-04 3 0 1 0
6 1     2.3497072237e+01     1.9232271721e+00    -7.5055931717e-05     0.0000000000e+00     1.2050961060e-10     4.8164622085e-11     2.3497072237e+01     1.9232271721e+00    -1.2407709430e-04    -6.9651643590e-04    -4.8012652085e-04 0 0 0 0
7 1     1.3259952177e+01     1.4489112062e+00    -7.5055931717e-05     0.0000000000e+00    -7.2796454218e-05    -2.7644857859e-04     1.3259952177e+01     1.4489112062e+00    -6.1821376681e-05    -5.3290781709e-04    -1.8759322223e-04 0 0 0 0
8 1     6.1612486074e+00     2.0013239509e+01     0.0000000000e+00     0.0000000000e+00     1.0147986238e-12     1.1258737540e-13     6.1612486074e+00     2.0013239509e+01    -1.5048684995e-04    -5.4744359640e-04    -1.2151135677e-04 3 0 0 0
9 1     3.0659220626e+01     2.0994576326e+01     0.0000000000e+00     0.0000000000e+00     3.0266924817e-11    -7.4466148308e-12     3.0659220626e+01     2.0994576326e+01    -2.9756427212e-04    -2.0674353244e-03    -9.3719179682e-04 3 0 0 0
10 1     2.3799937603e+01     3.8988245897e+00    -7.5055931717e-05     0.0000000000e+00     1.8398541778e-10     4.7028478225e-11     2.3799937603e+01     3.8988245897e+00     2.1739985275e-04    -1.2542310115e-03    -9.4803863657e-04 0 0 0 0
11 1     1.1396423857e+01     1.5379685653e+01     0.0000000000e+00     0.0000000000e+00     3.6451688022e-12    -3.2877921306e-13     1.1396423857e+01     1.5379685653e+01    -1.4332109536e-03    -2.4078402582e-03    -2.0603686582e-03 4 0 0 0
12 1     8.7891242160e+00     1.6314028912e+01     0.0000000000e+00     0.0000000000e+00     5.6994887325e-13    -4.8665574608e-13     8.7891242160e+00     1.6314028912e+01    -3.5236165136e-04    -6.0579168256e-04    -4.8245099296e-04 4 0 0 0
13 1     2.4188281398e+01     1.3770243596e+01     0.0000000000e+00     0.0000000000e+00    -2.6093444896e-12    -8.6932404092e-12     2.4188281398e+01     1.3770243596e+01    -2.8945730588e-04    -9.9761685865e-04    -9.0660380547e-04 4 0 0 0
14 1     1.5865431698e+01     1.4778634688e+01     0.0000000000e+00     0.0000000000e+00    -4.7473331960e-12     1.3785370415e-13     1.5865431698e+01     1.4778634688e+01     3.3268058000e-04    -2.0825377762e-03    -1.3634657283e-03 4 0 0 0
15 1     3.2515396387e+01     8.6672884256e+00     0.0000000000e+00     0.0000000000e+00    -1.0743102043e-05     2.6285349834e-05     3.2515396387e+01     8.6672884256e+00     1.3728683598e-05    -3.6950432832e-04    -4.0194529475e-04 3 0 1 0
16 1     5.9982896433e+00     1.9553872958e+00    -7.5055931717e-05     0.0000000000e+00     2.9279292624e-10     1.0291325081e-10     5.9982896433e+00     1.9553872958e+00    -2.0171934717e-04    -7.4352272471e-04    -7.3608492201e-04 0 0 0 0
17 1     3.0519518847e+01     8.5525560454e+00     0.0000000000e+00     0.0000000000e+00    -4.9314686552e-06     1.8596117888e-05     3.0519518847e+01     8.5525560454e+00     2.9636407230e-04    -5.5820603273e-04    -1.1630531132e-03 3 0 1 0
18 1     1.6629674121e+01     5.7095996394e+00    -7.5055931717e-05     0.0000000000e+00     0.0000000000e+00     0.0000000000e+00     1.6629674121e+01     5.7095996394e+00    -0.0000000000e+00    -0.0000000000e+00    -0.0000000000e+00 0 0 0 0
19 1     1.3804394672e+01     8.6573208307e+00     0.0000000000e+00     0.0000000000e+00    -4.4574074591e-05    -7.8129605599e-06     1.3804394672e+01     8.6573208307e+00     2.4377503484e-04    -5.6547895430e-04    -1.0961675722e-03 3 0 2 0
20 1     3.3762969366e+01     3.2136547651e+00    -7.5055931717e-05     0.0000000000e+00     1.8275925434e-10     2.2996645278e-12     3.3762969366e+01     3.2136547651e+00     4.8778428642e-04    -2.0064952735e-03    -1.3099480686e-03 0 0 0 0
21 1     1.2524672637e+01     7.1210517727e+00    -7.5055931717e-05     0.0000000000e+00     4.4713707595e-05     7.6981797604e-06     1.2524672637e+01     7.1210517727e+00    -3.1523105693e-05    -7.5920591526e-05    -3.5712396108e-04 0 0 0 0
22 1     1.4661847129e+01     6.8530114809e+00    -7.5055931717e-05     0.0000000000e+00     1.3826135987e-05    -2.9093812093e-05     1.4661847129e+01     6.8530114809e+00    -2.5370353616e-05    -4.3989293308e-04    -1.3791542396e-03 0 0 0 0
23 1     2.0136863719e+01     9.3859699770e+00     0.0000000000e+00     0.0000000000e+00    -5.0880206927e-05     2.4534117755e-06     2.0136863719e+01     9.3859699770e+00     1.0778415675e-03    -1.2719977835e-03    -2.3042326622e-03 3 0 2 0
24 1     2.5416982877e+01     1.9006479828e+01     0.0000000000e+00     0.0000000000e+00     1.3070366322e-12    -3.9526075555e-13     2.5416982877e+01     1.9006479828e+01     1.5181169012e-04    -1.0473142113e-04    -7.6078089195e-04 3 0 0 0
25 1     1.6571926923e+01     3.6416620136e+00    -7.5055931717e-05     0.0000000000e+00     1.8562601488e-10    -1.2746154284e-11     1.6571926923e+01     3.6416620136e+00     1.2319081280e-04    -1.2549198959e-03    -6.1487325089e-04 0 0 0 0
26 1     1.5972932697e+00     2.4237093006e+00    -7.5055931717e-05     0.0000000000e+00     2.5007984993e-10    -1.6660982712e-11     1.5972932697e+00     2.4237093006e+00    -1.2398857088e-04    -8.7227552354e-05    -1.9815656174e-04 0 0 0 0
27 1     1.2034832209e+01     5.1827678279e+00    -7.5055931717e-05     0.0000000000e+00     2.7137782668e-10     1.5811648434e-10     1.2034832209e+01     5.1827678279e+00     5.4114715646e-04    -9.5996279184e-04    -1.0033148981e-03 0 0 0 0
28 1     2.8915585225e+01     2.0024092052e+01     0.0000000000e+00     0.0000000000e+00    -4.0923451016e-12     1.3394979299e-11     2.8915585225e+01     2.0024092052e+01    -5.8341589069e-04    -1.7748159870e-03    -9.8540186653e-04 5 0 0 0
29 1     2.1714215708e+01     1.0615169066e+01     0.0000000000e+00     0.0000000000e+00    -2.1614074810e-12    -1.8310657894e-12     2.1714215708e+01     1.0615169066e+01    -3.4577069531e-06    -7.9455401977e-05    -1.5370468579e-04 3 0 0 0
30 1     2.2007122254e+00     1.1032099576e+01     0.0000000000e+00     0.0000000000e+00     9.0587314210e-13     1.3945142047e-13     2.2007122254e+00     1.1032099576e+01     2.0654035822e-05    -2.9598180861e-05    -2.0492831674e-05 3 0 0 0
31 1     1.3872193696e+01     1.4906357588e+01     0.0000000000e+00     0.0000000000e+00     6.5874223936e-13    -4.1943922294e-13     1.3872193696e+01     1.4906357588e+01    -4.4640677114e-05    -1.1099242575e-03    -6.0689812665e-04 3 0 0 0
32 1     2.7677200162e+01     1.8456899674e+01     0.0000000000e+00     0.0000000000e+00    -4.0770146048e-12     1.7812978740e-11     2.7677200162e+01     1.8456899674e+01    -3.0528206279e-05    -1.7699893816e-03    -2.9760813296e-03 5 0 0 0
33 1     1.7037814520e+01     1.6985233142e+00    -7.5055931717e-05     0.0000000000e+00     5.2844424239e-04    -5.4832515667e-04     1.7037814520e+01     1.6985233142e+00     2.1044540242e-04    -4.3372991897e-04    -4.5205847259e-04 0 0 0 0
34 1     8.4834895998e-01     1.2505464159e+01     0.0000000000e+00     0.0000000000e+00     1.4540901035e-12     6.5944206476e-13     8.4834895998e-01     1.2505464159e+01    -2.6131921449e-04    -2.3236403208e-03    -1.4901671315e-03 5 0 0 0
35 1     1.7081467184e+01     1.2026542167e+01     0.0000000000e+00     0.0000000000e+00     2.6478169971e-13    -3.8550271916e-14     1.7081467184e+01     1.2026542167e+01    -2.0979055480e-04    -2.7547777538e-04    -4.1626167656e-04 4 0 0 0
36 1     1.3475610447e+01     1.0628186100e+01     0.0000000000e+00     0.0000000000e+00    -5.7509682238e-12    -3.1360302267e-12     1.3475610447e+01     1.0628186100e+01     2.7825412368e-04    -2.3715289919e-03    -1.4519374931e-03 5 0 0 0
37 1     1.2299254947e+01     3.2022602113e+00    -7.5055931717e-05     0.0000000000e+00     2.1316927954e-10     1.5034839221e-10     1.2299254947e+01     3.2022602113e+00    -5.3981683833e-04    -7.7486374316e-04    -1.3280857416e-03 0 0 0 0
38 1     9.1349707150e+00     8.8415313123e+00     0.0000000000e+00     0.0000000000e+00    -7.3623716096e-05    -1.1092145675e-06     9.1349707150e+00     8.8415313123e+00    -4.4434212159e-04    -2.0974180715e-03    -2.8926506124e-03 2 0 2 0
39 1     2.5331859322e+01     1.1307747445e+00    -7.5055931717e-05     0.0000000000e+00    -3.2339873086e-05    -1.1201625439e-03     2.5331859322e+01     1.1307747445e+00    -2.7018605062e-04    -4.3603478332e-04    -1.1610793240e-03 0 0 0 0
40 1     4.1373315140e-01     1.8023664125e+01     0.0000000000e+00     0.0000000000e+00     7.1361623208e-13     1.1388605987e-13     4.1373315140e-01     1.8023664125e+01     1.9393400242e-04    -1.3927050160e-03    -1.3444571542e-04 3 0 0 0
41 1     1.8222379146e+00     8.8446159699e+00     0.0000000000e+00     0.0000000000e+00    -5.1826479011e-05    -3.4697273130e-05     1.8222379146e+00     8.8446159699e+00    -1.6839030598e-04    -5.7365079881e-04    -1.5011429754e-04 2 0 1 0
42 1     3.1031554508e+01     6.6217140980e+00    -7.5055931717e-05     0.0000000000e+00     4.9309881896e-06    -1.8593616798e-05     3.1031554508e+01     6.6217140980e+00     4.0889235421e-04    -9.6956333186e-04    -1.2785502678e-03 0 0 0 0
43 1     1.5106856994e+01     2.2127070108e+00    -7.5055931717e-05     0.0000000000e+00     8.2559307533e-06    -7.7602515899e-05     1.5106856994e+01     2.2127070108e+00     1.1240974274e-04    -7.4930913035e-04    -4.4637498486e-04 0 0 0 0
44 1     1.6773770946e+01     1.8966643046e+01     0.0000000000e+00     0.0000000000e+00    -6.2935870708e-12     9.1863975194e-12     1.6773770946e+01     1.8966643046e+01    -1.3128456026e-04    -2.0441525621e-03    -3.2528669543e-03 5 0 0 0
45 1     3.6093313725e+00     2.3033137106e+00    -7.5055931717e-05     0.0000000000e+00     1.9993354249e-10     3.6636993102e-11     3.6093313725e+00     2.3033137106e+00    -2.7888290014e-05    -6.3303801441e-05    -1.5813919177e-04 0 0 0 0
46 1     1.9429872350e+01     2.2590280928e+00    -7.5055931717e-05     0.0000000000e+00    -4.7820936582e-05    -1.4978416915e-04     1.9429872350e+01     2.2590280928e+00     1.5616441335e-04    -1.3049546652e-04    -3.2887729747e-04 0 0 0 0
47 1     2.0758364391e+01     5.9263928919e+00    -7.5055931717e-05     0.0000000000e+00     1.3358120675e-10     9.0626516816e-11     2.0758364391e+01     5.9263928919e+00     1.2739954613e-04    -1.2019427897e-03    -2.5166143326e-03 0 0 0 0
48 1     1.5260360907e+01     2.0268706487e+01     0.0000000000e+00     0.0000000000e+00     1.2455154611e-11    -8.4624316018e-12     1.5260360907e+01     2.0268706487e+01     2.3417529817e-04    -1.3659914340e-03    -1.6581342633e-03 4 0 0 0
49 1     2.8648324080e+01     9.2546942307e+00     0.0000000000e+00     0.0000000000e+00    -9.3020836585e-11    -8.3754870635e-08     2.8648324080e+01     9.2546942307e+00     3.4946374683e-04    -9.7437743472e-04    -2.5996439214e-03 4 0 1 0
50 1     1.2921359343e+01     1.6663732431e+01     0.0000000000e+00     0.0000000000e+00    -1.2705152685e-13    -6.2107038262e-12     1.2921359343e+01     1.6663732431e+01    -8.9702950892e-04    -2.5109548197e-03    -2.5126343518e-03 5 0 0 0
51 1     7.5924054063e+00     3.1608629602e+00    -7.5055931717e-05     0.0000000000e+00     2.9665441993e-10     7.9423684209e-11     7.5924054063e+00     3.1608629602e+00    -1.2688604293e-04    -4.5802708969e-04    -1.3502619569e-03 0 0 0 0
52 1     2.4093638175e+01     1.7507390594e+01     0.0000000000e+00     0.0000000000e+00     5.7344876867e-12    -6.0436439517e-12     2.4093638175e+01     1.7507390594e+01     9.3324688223e-05    -1.6678421593e-04    -5.1456634421e-04 4 0 0 0
53 1     1.6468910562e+01     7.7064895765e+00    -7.5055931717e-05     0.0000000000e+00     6.0470984872e-06    -2.0427734640e-05     1.6468910562e+01     7.7064895765e+00     5.1507124163e-06    -8.2272321400e-04    -3.5787561069e-04 0 0 0 0
54 1     2.7061047282e+00     4.0875268702e+00    -7.5055931717e-05     0.0000000000e+00     1.9008046166e-10     3.6012276548e-11     2.7061047282e+00     4.0875268702e+00    -2.6792485932e-05    -1.4558137884e-04    -3.2211419843e-04 0 0 0 0
55 1     1.2343558461e+01     1.3620268198e+01     0.0000000000e+00     0.0000000000e+00    -9.8590460882e-14    -1.9129603500e-13     1.2343558461e+01     1.3620268198e+01    -3.0661002634e-04    -5.0354283560e-04    -1.3447434232e-03 3 0 0 0
56 1     2.0068049578e+01     1.5631730874e+01     0.0000000000e+00     0.0000000000e+00     3.9890150644e-13     8.7366355470e-13     2.0068049578e+01     1.5631730874e+01    -1.0859558337e-04    -2.6354204732e-03    -6.1665507833e-04 3 0 0 0
57 1     7.4968212270e+00     1.2603337307e+01     0.0000000000e+00     0.0000000000e+00     2.4784677349e-13    -7.2110243124e-13     7.4968212270e+00     1.2603337307e+01    -9.0072664853e-05    -1.9338170459e-03    -4.4832168883e-04 3 0 0 0
58 1     2.9653323301e+01     1.8166159081e+01     0.0000000000e+00     0.0000000000e+00     2.6780062543e-12     7.4288537019e-12     2.9653323301e+01     1.8166159081e+01    -7.8460225854e-04    -2.1671452523e-03    -1.1851594096e-03 4 0 0 0
59 1     2.4848050465e+01     1.5656128857e+01     0.0000000000e+00     0.0000000000e+00    -8.4276191847e-12     2.9211444461e-12     2.4848050465e+01     1.5656128857e+01     6.6906789782e-06    -3.0163895153e-03    -2.0172323514e-03 5 0 0 0
60 1     2.7730451166e+00     1.3029881570e+01     0.0000000000e+00     0.0000000000e+00    -1.0274718359e-12    -7.1782055126e-13     2.7730451166e+00     1.3029881570e+01    -1.2469364323e-04    -2.8125870897e-03    -7.5765363340e-04 4 0 0 0
61 1     3.1517114311e+01     1.8876759983e+01     0.0000000000e+00     0.0000000000e+00    -6.4460909483e-12    -7.6909504156e-12     3.1517114311e+01     1.8876759983e+01    -7.1249187741e-04    -2.3269516390e-03    -9.8658649589e-04 3 0 0 0
62 1     2.8338601143e+01     3.5418419035e+01     0.0000000000e+00     0.0000000000e+00    -1.5019382349e-11    -1.3401894476e-11     2.8338601143e+01     3.5418419035e+01    -6.5938202241e-05    -1.2816574606e-03    -6.3235131866e-04 4 0 0 0
63 1     2.3781143404e+01     3.6825714565e+01     0.0000000000e+00     0.0000000000e+00     3.2556632179e-12    -2.6211662235e-12     2.3781143404e+01     3.6825714565e+01     4.4352897602e-04    -1.4769327330e-03    -6.8783802108e-04 4 0 0 0
64 1     4.4001206848e+00     2.9089339362e+01     0.0000000000e+00     0.0000000000e+00     2.3691117698e-12     7.7990001610e-13     4.4001206848e+00     2.9089339362e+01     4.5564636301e-04    -1.6392950933e-03    -8.4212671155e-04 4 0 0 0
65 1     2.8277087320e+01     3.7416789049e+01     0.0000000000e+00     0.0000000000e+00    -3.9267943348e-12    -8.8443822036e-13     2.8277087320e+01     3.7416789049e+01    -1.7628388239e-05    -1.4635277713e-03    -6.0023384381e-04 5 0 0 0
66 1     9.1587514893e+00     2.2555109346e+01     0.0000000000e+00     0.0000000000e+00     3.0408287108e-12    -1.3664939948e-12     9.1587514893e+00     2.2555109346e+01     3.6596160373e-04    -1.3981780658e-03    -8.3550707894e-04 4 0 0 0
67 1     2.9137769096e+01     2.4544682163e+01     0.0000000000e+00     0.0000000000e+00     3.2861071686e-12     1.7367112577e-11     2.9137769096e+01     2.4544682163e+01    -2.8540396853e-04    -6.6467181448e-04    -9.6119504816e-04 4 0 0 0
68 1     2.0029165186e+01     2.9538083644e+01     0.0000000000e+00     0.0000000000e+00    -2.8275000613e-12     3.4860156862e-11     2.0029165186e+01     2.9538083644e+01    -3.4875422618e-04    -4.0383717849e-04    -1.5518901380e-03 4 0 0 0
69 1     2.8842981285e+01     3.1805344765e+01     0.0000000000e+00     0.0000000000e+00    -4.4213003213e-12     6.5025087636e-12     2.8842981285e+01     3.1805344765e+01    -1.1891392845e-05    -5.9322712908e-04    -8.6034214704e-04 5 0 0 0
70 1     6.0213855267e+00     2.2008351136e+01     0.0000000000e+00     0.0000000000e+00     0.0000000000e+00     0.0000000000e+00     6.0213855267e+00     2.2008351136e+01    -0.0000000000e+00    -0.0000000000e+00    -0.0000000000e+00 0 0 0 0
71 1     1.2713625045e+01     2.3943425933e+01     0.0000000000e+00     0.0000000000e+00     2.4597869856e-12    -4.0527607312e-13     1.2713625045e+01     2.3943425933e+01     1.0573964853e-04    -5.9883635912e-04    -7.9726629012e-04 3 0 0 0
72 1     1.4991005898e+01     3.6478372524e+01     0.0000000000e+00     0.0000000000e+00     1.9554965557e-12    -4.5893987937e-13     1.4991005898e+01     3.6478372524e+01     1.4937280965e-04    -3.6692477707e-04    -3.2898319671e-04 4 0 0 0
73 1     1.8203600213e+01     3.4779094132e+01     0.0000000000e+00     0.0000000000e+00    -3.7417208004e-12     3.3229203894e-12     1.8203600213e+01     3.4779094132e+01     1.5054519428e-04    -1.4533045532e-03    -2.1217000605e-03 5 0 0 0
74 1     2.4036388383e+00     2.9148301198e+01     0.0000000000e+00     0.0000000000e+00     2.1883889286e-12     1.7064454504e-13     2.4036388383e+00     2.9148301198e+01     1.7804473064e-04    -1.3966398980e-03    -1.8725326697e-04 4 0 0 0
75 1     2.3332786956e+01     2.4040698690e+01     0.0000000000e+00     0.0000000000e+00     2.3217777202e-11    -3.0412475381e-12     2.3332786956e+01     2.4040698690e+01     2.8367836387e-04    -9.8606584582e-04    -7.3521658766e-04 5 0 0 0
76 1     1.6893535438e+01     2.7066571133e+01     0.0000000000e+00     0.0000000000e+00    -8.3997636320e-12     2.2895389144e-11     1.6893535438e+01     2.7066571133e+01     9.9089058341e-04    -1.8302080929e-03    -2.4434781657e-03 4 0 0 0
77 1     3.3109988075e+01     3.1744681678e+01     0.0000000000e+00     0.0000000000e+00    -4.8257668478e-12    -5.5414379682e-12     3.3109988075e+01     3.1744681678e+01     8.1781745491e-04    -8.8707514083e-04    -2.3008917551e-03 4 0 0 0
78 1     1.2991596147e+01     3.6473570722e+01     0.0000000000e+00     0.0000000000e+00    -3.4077532734e-12    -3.7306795023e-13     1.2991596147e+01     3.6473570722e+01    -2.0774438803e-04    -5.2260287720e-04    -5.4217357608e-04 4 0 0 0
79 1     2.9105596632e+01     3.9236846165e+01     0.0000000000e+00     0.0000000000e+00     9.0708902080e-12     9.1541125605e-12     2.9105596632e+01     3.9236846165e+01    -4.8484501631e-05    -2.2960001373e-05    -1.1045649083e-04 3 0 0 0
80 1     3.2534326619e+01     2.3069411251e+01     0.0000000000e+00     0.0000000000e+00     2.7578504937e-12    -7.8625246504e-13     3.2534326619e+01     2.3069411251e+01     7.1992925629e-05    -4.4692782993e-04    -1.0729932508e-03 4 0 0 0
81 1     6.9828868575e+00     4.1590288875e+01     0.0000000000e+00     0.0000000000e+00     2.4737317229e-12     1.6056470389e-13     6.9828868575e+00     4.1590288875e+01     3.0875160146e-04    -1.3208902742e-03    -6.2051225879e-04 3 0 0 0
82 1     1.7967956002e+01     2.9267830425e+01     0.0000000000e+00     0.0000000000e+00     7.2121953321e-12    -9.7896887537e-12     1.7967956002e+01     2.9267830425e+01     3.4503417649e-04    -2.4432867716e-04    -5.6532905548e-04 3 0 0 0
83 1     1.6986900062e+01     3.6360777175e+01     0.0000000000e+00     0.0000000000e+00     6.3209763216e-12     1.4423844877e-12     1.6986900062e+01     3.6360777175e+01     4.1658357151e-04    -1.1107267784e-03    -2.7458255863e-03 5 0 0 0
84 1     1.5770269019e+00     3.0969115324e+01     0.0000000000e+00     0.0000000000e+00     1.0964535486e-12    -1.3068687842e-12     1.5770269019e+00     3.0969115324e+01    -4.2044294511e-04    -2.8835927463e-04    -8.3721451601e-04 3 0 0 0
85 1     4.2404327368e+00     1.9460477441e+01     0.0000000000e+00     0.0000000000e+00     2.5611459703e-12     1.1512147301e-12     4.2404327368e+00     1.9460477441e+01    -2.2141351167e-04    -4.8356899155e-04    -5.7687117840e-04 4 0 0 0
86 1     3.3773704612e+01     2.4637257507e+01     0.0000000000e+00     0.0000000000e+00     2.4234686388e-12     2.1138432801e-12     3.3773704612e+01     2.4637257507e+01     4.2672856013e-04    -6.2477372361e-04    -2.0750448430e-03 4 0 0 0
87 1     1.6979441440e+01     3.1004856883e+01     0.0000000000e+00     0.0000000000e+00    -8.6039492046e-12    -1.0159965425e-11     1.6979441440e+01     3.1004856883e+01    -5.7807393237e-04    -6.9522993727e-04    -1.6431121717e-03 4 0 0 0
88 1     1.9904490210e+01     3.5825120225e+01     0.0000000000e+00     0.0000000000e+00    -7.9719672703e-13     1.5076531820e-11     1.9904490210e+01     3.5825120225e+01    -8.5422690085e-04    -1.1146889776e-03    -1.1159557968e-03 4 0 0 0
89 1     4.9372825689e+00     2.3724581865e+01     0.0000000000e+00     0.0000000000e+00     1.5097663584e-12     1.7148733605e-13     4.9372825689e+00     2.3724581865e+01    -2.7189743309e-04    -3.1995093153e-04    -5.7815950063e-04 3 0 0 0
90 1     3.1531118160e-01     3.2633472849e+01     0.0000000000e+00     0.0000000000e+00     2.0728178424e-12    -2.3638804401e-13     3.1531118160e-01     3.2633472849e+01    -8.6473700204e-05    -4.6357178394e-04    -1.4462618314e-04 4 0 0 0
91 1     3.1946253575e+01     3.0119925411e+01     0.0000000000e+00     0.0000000000e+00     7.9274991248e-12     5.0784971931e-12     3.1946253575e+01     3.0119925411e+01    -3.2688372841e-04    -2.7001385825e-04    -5.6861314013e-04 3 0 0 0
92 1     3.0839038746e+01     3.1927987040e+01     0.0000000000e+00     0.0000000000e+00     9.9453018791e-12     8.6749706268e-12     3.0839038746e+01     3.1927987040e+01    -3.1137461229e-04    -2.2669260088e-04    -5.3189292505e-04 3 0 0 0
93 1     2.9946641281e+01     3.0139511133e+01     0.0000000000e+00     0.0000000000e+00     3.1920363163e-12    -1.5046510533e-11     2.9946641281e+01     3.0139511133e+01     1.8144005552e-04    -5.6428190974e-04    -1.1947354588e-03 5 0 0 0
94 1     2.2552868280e+01     3.2597408158e+01     0.0000000000e+00     0.0000000000e+00     6.6112706401e-12     2.6979047522e-12     2.2552868280e+01     3.2597408158e+01    -2.2773561269e-04    -2.5486822222e-04    -2.6420376326e-04 3 0 0 0
95 1     8.5906818155e+00     4.2781576688e+01     0.0000000000e+00     0.0000000000e+00     2.8026863870e-12     1.1115633696e-12     8.5906818155e+00     4.2781576688e+01     1.2008960785e-04    -4.2928269302e-04    -7.7298912818e-04 4 0 0 0
96 1     2.6420904149e+01     2.6928918728e+01     0.0000000000e+00     0.0000000000e+00     1.2226880478e-12     2.6834897423e-12     2.6420904149e+01     2.6928918728e+01    -1.7387282947e-04    -4.2964961379e-04    -3.1965849838e-04 3 0 0 0
97 1     1.2639258617e+01     2.1367281328e+01     0.0000000000e+00     0.0000000000e+00    -6.9443862824e-12     5.1825246568e-12     1.2639258617e+01     2.1367281328e+01     4.4230038144e-04    -1.1106995161e-03    -1.7062327312e-03 3 0 0 0
98 1     2.1099493132e+01     3.1224788899e+01     0.0000000000e+00     0.0000000000e+00     8.9234617417e-12    -1.8123559944e-11     2.1099493132e+01     3.1224788899e+01     7.5414506607e-05    -8.2878404788e-04    -1.2528698367e-03 5 0 0 0
99 1     2.1810105790e+01     3.5218496663e+01     0.0000000000e+00     0.0000000000e+00     2.3254018807e-11    -7.3519146212e-12     2.1810105790e+01     3.5218496663e+01    -4.2573815506e-07    -3.6341155408e-04    -3.8943591543e-04 4 0 0 0
100 1     8.0325136323e+00     3.2253229772e+01     0.0000000000e+00     0.0000000000e+00     1.8187405597e-12    -1.9199011413e-14     8.0325136323e+00     3.2253229772e+01    -1.7978187259e-04    -3.1315911237e-04    -2.0574216106e-04 3 0 0 0
101 1     2.8984851376e+01     2.6537395336e+01     0.0000000000e+00     0.0000000000e+00     7.0687691269e-13    -1.6699342701e-11     2.8984851376e+01     2.6537395336e+01     9.5668938439e-05    -1.6011646835e-04    -7.1640462680e-04 3 0 0 0
102 1     1.7799532458e+01     3.2824839156e+01     0.0000000000e+00     0.0000000000e+00     3.2892073668e-12    -1.6991522325e-12     1.7799532458e+01     3.2824839156e+01    -3.6189788010e-04    -4.0500673327e-04    -2.0659024275e-03 4 0 0 0
103 1     2.7215334307e+01     2.5094108694e+01     0.0000000000e+00     0.0000000000e+00    -2.7624346495e-13    -2.4639230204e-12     2.7215334307e+01     2.5094108694e+01     1.7472614855e-05    -2.2787463097e-04    -2.1919908388e-04 3 0 0 0
104 1     3.0272865772e+01     3.7489980225e+01     0.0000000000e+00     0.0000000000e+00     4.5514781180e-12    -5.1017675327e-13     3.0272865772e+01     3.7489980225e+01    -5.1868448840e-04    -1.0481461995e-03    -2.5122569931e-03 4 0 0 0
105 1     3.0536836682e+01     2.2988180001e+01     0.0000000000e+00     0.0000000000e+00    -1.3716782159e-12     1.0886323527e-11     3.0536836682e+01     2.2988180001e+01    -5.3617106979e-04    -1.0487655771e-03    -1.6243835512e-03 4 0 0 0
106 1     2.6938756344e+01     2.0310114684e+01     0.0000000000e+00     0.0000000000e+00    -1.1178639394e-11    -1.9262921661e-11     2.6938756344e+01     2.0310114684e+01     5.8235537927e-04    -2.5831059987e-03    -2.0137245555e-03 4 0 0 0
107 1     1.2292493045e+01     3.1806732143e+01     0.0000000000e+00     0.0000000000e+00     2.8870006022e-12     1.9061634866e-13     1.2292493045e+01     3.1806732143e+01     7.8010888008e-04    -1.8929574390e-03    -1.5371066574e-03 4 0 0 0
108 1     1.2492044101e+01     2.5929146143e+01     0.0000000000e+00     0.0000000000e+00     1.1668568672e-12     5.4240070551e-13     1.2492044101e+01     2.5929146143e+01     1.2548744735e-04    -4.0636726397e-04    -8.5627653094e-04 3 0 0 0
109 1     2.1627522468e+01     2.2996664868e+01     0.0000000000e+00     0.0000000000e+00    -3.6405381747e-12    -2.0186479116e-11     2.1627522468e+01     2.2996664868e+01     8.0726780190e-04    -3.0401896426e-03    -2.0453195953e-03 5 0 0 0
110 1     3.8111063775e+00     3.0998188337e+01     0.0000000000e+00     0.0000000000e+00     3.0101676360e-12    -1.0838898138e-12     3.8111063775e+00     3.0998188337e+01     5.1402509925e-04    -3.9676847620e-04    -1.1424991504e-03 3 0 0 0
111 1     2.9426489852e+01     3.3716380753e+01     0.0000000000e+00     0.0000000000e+00     7.0152112472e-12    -3.5542104199e-13     2.9426489852e+01     3.3716380753e+01    -3.5424283087e-04    -2.6270901853e-04    -8.3698124146e-04 3 0 0 0
112 1     2.7048687900e+01     3.0925253543e+01     0.0000000000e+00     0.0000000000e+00     1.0876849551e-11     7.5491874850e-12     2.7048687900e+01     3.0925253543e+01     2.1215147467e-04    -9.1332234129e-04    -5.1546356605e-04 3 0 0 0
113 1     1.1151041066e+01     2.2697588193e+01     0.0000000000e+00     0.0000000000e+00     4.8925770932e-12    -7.2457809880e-12     1.1151041066e+01     2.2697588193e+01     4.9702678663e-04    -1.6137814465e-03    -1.4700862731e-03 5 0 0 0
114 1     6.2395876252e+00     2.8314766184e+01     0.0000000000e+00     0.0000000000e+00    -5.9537957247e-12     1.7876487508e-12     6.2395876252e+00     2.8314766184e+01    -4.3805633615e-06    -2.0931457246e-03    -1.5762677533e-03 5 0 0 0
115 1     8.0425778293e+00     2.9171654428e+01     0.0000000000e+00     0.0000000000e+00     2.7756407199e-12    -1.3754911381e-12     8.0425778293e+00     2.9171654428e+01    -8.4248207235e-04    -1.6525358337e-03    -4.9776806516e-04 3 0 0 0
116 1     3.3510314291e+00     2.7387570231e+01     0.0000000000e+00     0.0000000000e+00     1.0199287839e-12     5.7839554001e-13     3.3510314291e+00     2.7387570231e+01     1.2927950907e-04    -9.5628881997e-04    -4.3262165188e-04 4 0 0 0
117 1     1.3909823581e+01     2.7337995696e+01     0.0000000000e+00     0.0000000000e+00     1.3767396240e-12    -3.8908663075e-13     1.3909823581e+01     2.7337995696e+01     3.7944834244e-04    -7.0289209975e-04    -1.4789511219e-03 4 0 0 0
118 1     1.6876345295e+01     2.3593505352e+01     0.0000000000e+00     0.0000000000e+00    -2.4456467125e-12    -7.1002685983e-12     1.6876345295e+01     2.3593505352e+01    -2.4538195969e-04    -1.0984827159e-03    -1.5457497245e-03 5 0 0 0
119 1     2.3377327381e+01     2.2042207002e+01     0.0000000000e+00     0.0000000000e+00     5.7871826804e-13     6.3058892689e-12     2.3377327381e+01     2.2042207002e+01     1.5118297904e-03    -2.5835292481e-03    -1.2813989136e-03 4 0 0 0
120 1     7.8965087125e+00     2.1005522904e+01     0.0000000000e+00     0.0000000000e+00     1.0743321109e-12     9.5933314461e-13     7.8965087125e+00     2.1005522904e+01    -2.6869604804e-04    -3.3893882945e-04    -4.3543812193e-04 3 0 0 0
121 1     1.7869388426e+01     2.5326037253e+01     0.0000000000e+00     0.0000000000e+00     1.4318997160e-11    -1.6113002046e-11     1.7869388426e+01     2.5326037253e+01     3.8697899179e-04    -1.1187396911e-03    -2.7006016513e-03 4 0 0 0