ITEM: TIMESTEP
0
ITEM: NUMBER OF ATOMS
4556
ITEM: BOX BOUNDS pp ff pp
0.0000000000000000e+00 1.5011186343322501e+02
0.0000000000000000e+00 1.6691186343322499e+02
-1.0000000000000000e-02 1.0000000000000000e-02
ITEM: ATOMS id type x y vx vy fx fy xu yu c_shearStr[4] c_shearStr[1] c_shearStr[2] v_coordA v_coordB v_coordA_wall v_coordB_wall
1 1     3.6870501340e+01     5.4408061129e+00    -7.5055931717e-05     0.0000000000e+00     9.9286832388e-10     1.5950804859e-10     3.6870501340e+01     5.4408061129e+00    -6.6704485204e-04    -1.5885631690e-03    -1.5170493031e-03 0 0 0 0
2 1     3.5147485764e+01     1.7584205547e+01     0.0000000000e+00     0.0000000000e+00     3.8891464918e-13     7.6533289255e-14     3.5147485764e+01     1.7584205547e+01    -1.1646669070e-04    -1.1533104280e-03    -8.9140437300e-04 4 0 0 0
3 1     2.0795955598e+01     1.1970842130e+01     0.0000000000e+00     0.0000000000e+00     5.3694388887e-13    -1.6775463939e-12     2.0795955598e+01     1.1970842130e+01     3.2977233975e-04    -8.5991971800e-04    -7.9134730526e-04 4 0 0 0
4 1     3.2684071035e+01     3.1222044050e+00    -7.5055931717e-05     0.0000000000e+00     1.5118644401e-10     7.4741637792e-11     3.2684071035e+01     3.1222044050e+00    -2.5783375528e-04    -2.6092315557e-03    -9.5549411459e-04 0 0 0 0
5 1     2.0989669753e+01     7.1829384815e+00    -7.5055931717e-05     0.0000000000e+00     3.9346032410e-07    -5.4159883484e-06     2.0989669753e+01     7.1829384815e+00     2.6450342955e-04    -6.9162619296e-04    -1.4018231412e-03 0 0 0 0
6 1     1.5158142443e+01     1.8780502477e+01     0.0000000000e+00     0.0000000000e+00    -4.2804388506e-13    -4.8184459894e-13     1.5158142443e+01     1.8780502477e+01    -2.7374769021e-05    -3.1502045928e-03    -5.2914289648e-04 3 0 0 0
7 1     2.4062151802e+01     1.4321507980e+01     0.0000000000e+00     0.0000000000e+00     1.1723200458e-12     1.0626297380e-12     2.4062151802e+01     1.4321507980e+01     2.0547889393e-08    -3.7277174493e-08    -4.0024653753e-08 3 0 0 0
8 1     1.3130053997e+01     1.6244629482e+01     0.0000000000e+00     0.0000000000e+00     0.0000000000e+00     0.0000000000e+00     1.3130053997e+01     1.6244629482e+01    -0.0000000000e+00    -0.0000000000e+00    -0.0000000000e+00 0 0 0 0
9 1     1.0152425458e+01     4.7982599545e+00    -7.5055931717e-05     0.0000000000e+00    -1.0369018505e-10     9.6592894971e-11     1.0152425458e+01     4.7982599545e+00     2.6337033099e-04    -4.1882522173e-04    -4.6925143238e-04 0 0 0 0
10 1     1.4952736688e+02     4.1429753179e+00    -7.5055931717e-05     0.0000000000e+00    -5.7745438748e-11    -5.6146763237e-11     1.4952736688e+02     4.1429753179e+00    -5.1520872508e-04    -2.2425999702e-03    -2.2158329835e-03 0 0 0 0
11 1     3.7483390990e+01     1.7639188231e+01     0.0000000000e+00     0.0000000000e+00     2.8040928954e-12     8.6430445049e-13     3.7483390990e+01     1.7639188231e+01     1.8899971692e-04    -1.0780596237e-03    -1.0929646356e-03 5 0 0 0
12 1     3.8341378680e+01     1.8089754997e+00    -7.5055931717e-05     0.0000000000e+00     1.6488714040e-11     3.6506395129e-10     3.8341378680e+01     1.8089754997e+00    -1.9738116296e-04    -1.6658522115e-03    -6.2552385012e-04 0 0 0 0
13 1     3.6353085241e+01     1.5991435206e+01     0.0000000000e+00     0.0000000000e+00    -3.7600044606e-13    -6.1468853011e-13     3.6353085241e+01     1.5991435206e+01    -3.1861998751e-05    -1.8294562669e-03    -1.3975208518e-03 5 0 0 0
14 1     1.2732909278e+00     3.4050133605e+00    -7.5055931717e-05     0.0000000000e+00    -6.2959139746e-11     1.2588819924e-10     1.2732909278e+00     3.4050133605e+00     1.7646075196e-04    -6.5551611380e-04    -9.5727277325e-04 0 0 0 0
15 1     1.7847377542e+01     5.4436294268e+00    -7.5055931717e-05     0.0000000000e+00     5.0987529122e-11     2.5976783149e-10     1.7847377542e+01     5.4436294268e+00     2.2844062788e-04    -8.3954843067e-04    -1.3648202348e-04 0 0 0 0
16 1     9.6587043258e+00     6.7356079132e+00    -7.5055931717e-05     0.0000000000e+00     4.3863897892e-05     3.8611558656e-06     9.6587043258e+00     6.7356079132e+00    -2.1293640016e-04    -3.1664595823e-04    -6.5573225125e-04 0 0 0 0
17 1     1.9195996103e+01     1.3166949730e+01     0.0000000000e+00     0.0000000000e+00    -1.3380923973e-12    -1.9559104770e-13     1.9195996103e+01     1.3166949730e+01    -1.6632626538e-06    -1.6034472313e-03    -4.8921092838e-04 3 0 0 0
18 1     3.2425829193e+01     1.5259158763e+01     0.0000000000e+00     0.0000000000e+00    -6.6009079713e-13     8.0070661473e-13     3.2425829193e+01     1.5259158763e+01     6.3344157643e-04    -9.7508653609e-04    -1.3348801681e-03 4 0 0 0
19 1     2.5514269362e+01     1.5696773176e+01     0.0000000000e+00     0.0000000000e+00     1.6699565992e-12     1.0621191426e-12     2.5514269362e+01     1.5696773176e+01     1.2670332629e-03    -1.3386930884e-03    -1.3879321768e-03 4 0 0 0
20 1     2.9299084254e+01     8.5973247539e+00     0.0000000000e+00     0.0000000000e+00    -5.5049802017e-05    -2.3819077134e-05     2.9299084254e+01     8.5973247539e+00    -5.3733202084e-04    -2.0398440864e-03    -2.2248473347e-03 2 0 2 0
21 1     1.8270292830e+01     3.4890878903e+00    -7.5055931717e-05     0.0000000000e+00     8.4274465336e-11     2.5803834438e-10     1.8270292830e+01     3.4890878903e+00    -4.9143162280e-04    -2.1380479009e-03    -1.0177673186e-03 0 0 0 0
22 1     6.4642116080e+00     1.7239248189e+01     0.0000000000e+00     0.0000000000e+00    -4.8259660157e-13     1.8135466002e-13     6.4642116080e+00     1.7239248189e+01     8.1906551202e-04    -1.9716524259e-03    -2.0318894302e-03 5 0 0 0
23 1     2.7533395558e+01     9.5293637020e+00     0.0000000000e+00     0.0000000000e+00    -1.0904276565e-07     2.8587470685e-06     2.7533395558e+01     9.5293637020e+00     2.3169474617e-04    -1.2250257085e-03    -1.1831907580e-03 3 0 1 0
24 1     2.5770136031e+01     8.5912270493e+00     0.0000000000e+00     0.0000000000e+00    -3.1158637835e-07    -4.8259191829e-06     2.5770136031e+01     8.5912270493e+00    -2.5633419190e-04    -1.0482792248e-03    -1.8508874826e-03 3 0 1 0
25 1     7.6108838862e+00     1.8877751000e+01     0.0000000000e+00     0.0000000000e+00    -1.6659678465e-13    -7.3278084718e-13     7.6108838862e+00     1.8877751000e+01    -7.5771406026e-07    -2.5291131784e-04    -2.2920664469e-05 3 0 0 0
26 1     7.2566343960e+00     7.0861773611e+00    -7.5055931717e-05     0.0000000000e+00     4.2947862382e-05     1.9622166453e-05     7.2566343960e+00     7.0861773611e+00     1.3540051311e-04    -6.9680350430e-04    -4.9263886804e-04 0 0 0 0
27 1     5.9579354676e+00     2.5040192811e+00    -7.5055931717e-05     0.0000000000e+00    -2.1027859570e-10    -4.8455959351e-11     5.9579354676e+00     2.5040192811e+00     7.0574984185e-04    -1.9009990748e-03    -1.2715600051e-03 0 0 0 0
28 1     3.6153175702e+01     1.4004229577e+01     0.0000000000e+00     0.0000000000e+00    -1.1242258480e-12    -2.1820436083e-13     3.6153175702e+01     1.4004229577e+01    -5.1931797508e-05    -1.7991712861e-03    -1.0576173858e-03 4 0 0 0
29 1     1.1116415798e+01     1.6886726348e+01     0.0000000000e+00     0.0000000000e+00    -6.7068784337e-13    -6.3788221667e-13     1.1116415798e+01     1.6886726348e+01    -3.0200400109e-04    -1.1984648370e-03    -1.7265250323e-03 4 0 0 0
30 1     2.2289705243e+01     3.3724499221e+00    -7.5055931717e-05     0.0000000000e+00     1.2200487921e-10     1.7723971292e-10     2.2289705243e+01     3.3724499221e+00    -3.1135322777e-04    -5.8109564561e-04    -1.3526540577e-03 0 0 0 0
31 1     3.3175675822e+01     1.7267447010e+01     0.0000000000e+00     0.0000000000e+00    -4.9573583086e-13     1.2373177027e-12     3.3175675822e+01     1.7267447010e+01     2.2286515246e-04    -1.7505760916e-03    -6.9188060107e-04 4 0 0 0
32 1     3.6456309068e+01     2.4717946080e+00    -7.5055931717e-05     0.0000000000e+00    -9.5832964269e-10    -1.0641989580e-09     3.6456309068e+01     2.4717946080e+00    -1.5229483202e-04    -1.2806111198e-03    -5.0091390571e-04 0 0 0 0
33 1     9.6000217131e+00     1.0564170740e+01     0.0000000000e+00     0.0000000000e+00     2.9433256505e-14     1.1839007964e-13     9.6000217131e+00     1.0564170740e+01     2.3287729438e-04    -5.5801024483e-04    -4.2997228187e-04 3 0 0 0
34 1     3.6291989515e+01     1.2009866344e+01     0.0000000000e+00     0.0000000000e+00     3.4553619460e-13    -3.0391460290e-12     3.6291989515e+01     1.2009866344e+01     5.3290972084e-06    -8.9524571850e-05    -4.0789563824e-04 3 0 0 0
35 1     1.6359063012e+01     8.4208847030e+00     0.0000000000e+00     0.0000000000e+00    -7.6735833624e-05    -2.2432018747e-06     1.6359063012e+01     8.4208847030e+00     1.5421446867e-04    -4.1828987053e-04    -6.4857026542e-04 1 0 2 0
36 1     2.8601938271e+00     1.9101964468e+01     0.0000000000e+00     0.0000000000e+00    -8.4640616998e-13     5.5207176179e-13     2.8601938271e+00     1.9101964468e+01    -6.5984737970e-05    -1.0117477027e-03    -2.2411016775e-04 3 0 0 0
37 1     5.2900797390e+00     1.2647231547e+01     0.0000000000e+00     0.0000000000e+00    -8.6750523215e-13     4.1178323772e-14     5.2900797390e+00     1.2647231547e+01    -4.5468066144e-04    -2.6642906717e-04    -1.3235915202e-03 3 0 0 0
38 1     8.6863967907e+00     8.4828805276e+00     0.0000000000e+00     0.0000000000e+00    -5.6152203308e-05    -5.6266186023e-06     8.6863967907e+00     8.4828805276e+00     5.7885905716e-05    -2.1332784399e-03    -3.0306842581e-04 2 0 2 0
39 1     3.5256416821e+00     5.5679030659e+00    -7.5055931717e-05     0.0000000000e+00    -2.1329795168e-10     1.0548400586e-10     3.5256416821e+00     5.5679030659e+00    -6.5830140874e-04    -1.7465480260e-03    -2.8410175617e-03 0 0 0 0
40 1     2.7609616221e+01     7.5311100999e+00    -7.5055931717e-05     0.0000000000e+00     5.3780932883e-05     3.1015411994e-05     2.7609616221e+01     7.5311100999e+00    -5.2995780548e-04    -9.0602259060e-04    -4.6154550748e-04 0 0 0 0
41 1     2.0554777267e+01     1.4631693520e+01     0.0000000000e+00     0.0000000000e+00     3.3845979896e-12    -6.7313288190e-14     2.0554777267e+01     1.4631693520e+01    -7.4234951548e-05    -1.6267218351e-03    -8.0269224311e-04 5 0 0 0
42 1     3.1461434988e+01     1.3508384776e+01     0.0000000000e+00     0.0000000000e+00    -1.0738084141e-12    -2.8834584460e-13     3.1461434988e+01     1.3508384776e+01    -3.5001055379e-04    -8.2215788927e-04    -3.7255045528e-04 3 0 0 0
43 1     2.5052645904e+01     1.2584003755e+01     0.0000000000e+00     0.0000000000e+00    -1.8633017478e-13     4.2465794039e-13     2.5052645904e+01     1.2584003755e+01    -1.0731431572e-06    -1.6444641290e-06    -7.4594188204e-07 3 0 0 0
44 1     3.3367412687e+01     1.0991657473e+01     0.0000000000e+00     0.0000000000e+00     3.2947429507e-13     1.8575592453e-13     3.3367412687e+01     1.0991657473e+01    -1.9626711479e-04    -2.7128900407e-03    -2.0124783968e-03 3 0 0 0
45 1     1.0670651202e+01     1.2252579592e+01     0.0000000000e+00     0.0000000000e+00    -2.6254877856e-13    -6.5441521559e-13     1.0670651202e+01     1.2252579592e+01     2.9078849374e-04    -6.9296804955e-04    -6.1597727785e-04 4 0 0 0
46 1     3.1222243991e+01     1.6851879615e+01     0.0000000000e+00     0.0000000000e+00     2.3014180893e-12     2.0824072718e-12     3.1222243991e+01     1.6851879615e+01     2.7394745523e-04    -2.3948810462e-03    -1.9755172390e-03 5 0 0 0
47 1     6.7646742163e+00     9.0245491231e+00     0.0000000000e+00     0.0000000000e+00    -5.0132097337e-05    -1.8755317649e-05     6.7646742163e+00     9.0245491231e+00    -5.9249432790e-04    -1.8049370509e-03    -1.7751205215e-03 3 0 2 0
48 1     1.3617300887e+01     4.1853927267e+00    -7.5055931717e-05     0.0000000000e+00     1.0283631691e-10     2.3955541701e-10     1.3617300887e+01     4.1853927267e+00     1.7258524529e-04    -6.0761181049e-04    -3.0138681799e-04 0 0 0 0
49 1     3.1474821127e+01     7.7516159164e+00    -7.5055931717e-05     0.0000000000e+00     1.4844882906e-06    -1.0447887953e-05     3.1474821127e+01     7.7516159164e+00     9.3282254626e-06    -6.6069708175e-06    -5.5824748710e-05 0 0 0 0
50 1     2.2156127349e+01     1.3436143975e+01     0.0000000000e+00     0.0000000000e+00     5.0256551850e-14     1.3747944840e-12     2.2156127349e+01     1.3436143975e+01     4.0337374148e-04    -5.0721754098e-04    -1.9002831107e-03 4 0 0 0
51 1     2.2019524871e+01     1.8969756162e+01     0.0000000000e+00     0.0000000000e+00     1.6346299314e-13    -4.2226985797e-13     2.2019524871e+01     1.8969756162e+01     1.0672793239e-04    -3.3945577453e-03    -1.3829550917e-03 4 0 0 0
52 1     2.7135437094e+01     1.1486082679e+01     0.0000000000e+00     0.0000000000e+00     1.2194566273e-12    -2.6253393990e-12     2.7135437094e+01     1.1486082679e+01    -3.8178239303e-04    -1.3058677784e-03    -2.1814348089e-03 4 0 0 0
53 1     3.8822238958e+01     5.8678302306e+00    -7.5055931717e-05     0.0000000000e+00     3.3324126737e-10     1.2391418498e-11     3.8822238958e+01     5.8678302306e+00     6.1703293246e-04    -1.6610893635e-03    -1.1479259829e-03 0 0 0 0
54 1     8.2280225809e+00     5.3396715325e+00    -7.5055931717e-05     0.0000000000e+00     1.8309807918e-10     8.2687088134e-11     8.2280225809e+00     5.3396715325e+00    -5.5256270613e-05    -6.0518134900e-04    -8.8651015095e-04 0 0 0 0
55 1     2.2390426904e+01     1.5419385643e+01     0.0000000000e+00     0.0000000000e+00    -4.3883527454e-13     1.7036621679e-13     2.2390426904e+01     1.5419385643e+01    -9.5411467983e-04    -1.0445214387e-03    -1.7739354050e-03 5 0 0 0
56 1     1.1541794973e+00     2.0143352904e+01     0.0000000000e+00     0.0000000000e+00     1.4846988656e-13     5.6647235188e-13     1.1541794973e+00     2.0143352904e+01     1.0800064289e-06    -5.2046563522e-04    -5.4840192161e-04 4 0 0 0
57 1     2.7435278487e+01     1.6251640980e+01     0.0000000000e+00     0.0000000000e+00     1.1704796203e-12    -2.3553495309e-13     2.7435278487e+01     1.6251640980e+01    -1.5657969164e-04    -2.1422984044e-04    -2.3578317379e-04 3 0 0 0
58 1     3.3295447608e+00     1.2254278135e+01     0.0000000000e+00     0.0000000000e+00    -9.6321130867e-14    -2.9995138521e-13     3.3295447608e+00     1.2254278135e+01     4.9231658280e-05    -3.2236792959e-04    -6.2360172910e-05 3 0 0 0
59 1     1.1664955763e+01     2.0746007882e+01     0.0000000000e+00     0.0000000000e+00     2.8870257422e-14    -7.6915137128e-13     1.1664955763e+01     2.0746007882e+01     3.4486457597e-05    -2.8000028475e-04    -6.6356152833e-04 4 0 0 0
60 1     9.3130439798e+00     2.1643738006e+00    -7.5055931717e-05     0.0000000000e+00     2.2112319061e-10     3.1028944897e-10     9.3130439798e+00     2.1643738006e+00     1.7122217369e-04    -5.2317850555e-04    -4.8208830589e-04 0 0 0 0
61 1     3.4141438015e+01     1.9312528353e+01     0.0000000000e+00     0.0000000000e+00     1.5348024230e-13    -6.2351589414e-13     3.4141438015e+01     1.9312528353e+01    -7.4862294788e-06    -8.4056307861e-05    -8.2212684425e-05 3 0 0 0
62 1     7.7433175559e+00     3.4012062741e+00    -7.5055931717e-05     0.0000000000e+00    -8.5968341712e-11     6.1382143021e-11     7.7433175559e+00     3.4012062741e+00    -1.0768676795e-04    -6.3879175992e-04    -6.7838526558e-04 0 0 0 0
63 1     3.3193795504e+01     8.8916477884e+00     0.0000000000e+00     0.0000000000e+00    -2.9135848800e-05     3.6577596860e-05     3.3193795504e+01     8.8916477884e+00     1.2553216496e-04    -2.0870625211e-04    -1.4629250292e-04 2 0 1 0
64 1     3.7699161347e+00     1.4276335978e+01     0.0000000000e+00     0.0000000000e+00     0.0000000000e+00     0.0000000000e+00     3.7699161347e+00     1.4276335978e+01    -0.0000000000e+00    -0.0000000000e+00    -0.0000000000e+00 0 0 0 0
65 1     3.4381140450e+01     1.5673744220e+01     0.0000000000e+00     0.0000000000e+00    -7.0094884758e-13     6.0421014979e-14     3.4381140450e+01     1.5673744220e+01    -5.8003198256e-05    -1.1127082475e-03    -7.6108500527e-04 4 0 0 0
66 1     2.5372369779e+01     1.0548674925e+01     0.0000000000e+00     0.0000000000e+00    -9.3061365905e-13     1.0940879279e-13     2.5372369779e+01     1.0548674925e+01     7.4073223525e-05    -1.6129365767e-03    -8.7084708862e-04 3 0 0 0
67 1     2.0017884568e+01     3.7010380426e+01     0.0000000000e+00     0.0000000000e+00     5.8364868927e-13    -7.3970059136e-14     2.0017884568e+01     3.7010380426e+01     3.1101796860e-04    -1.3057447828e-03    -5.4119020813e-04 4 0 0 0
68 1     4.3343917984e+00     4.0016477490e+01     0.0000000000e+00     0.0000000000e+00     2.3436883673e-12     1.7729225748e-12     4.3343917984e+00     4.0016477490e+01    -5.1949932125e-04    -1.0274957719e-03    -1.1373736955e-03 4 0 0 0
69 1     1.3071139146e+01     3.1069678602e+01     0.0000000000e+00     0.0000000000e+00     1.1831569795e-12    -2.9292673430e-13     1.3071139146e+01     3.1069678602e+01    -2.0524112775e-04    -4.9099281706e-04    -1.9065821642e-04 3 0 0 0
70 1     3.7696420760e+01     2.1399109294e+01     0.0000000000e+00     0.0000000000e+00    -1.7780833771e-12     4.9904033932e-13     3.7696420760e+01     2.1399109294e+01    -3.4447310018e-05    -6.1248733739e-04    -7.4253444313e-04 4 0 0 0
71 1     7.0762122562e+00     2.0852383060e+01     0.0000000000e+00     0.0000000000e+00     5.8967731414e-13    -2.9301458178e-14     7.0762122562e+00     2.0852383060e+01    -2.4872027410e-04    -9.2478535670e-04    -5.0965386609e-04 3 0 0 0
72 1     1.6884963303e+01     2.8002076493e+01     0.0000000000e+00     0.0000000000e+00    -1.6464256580e-12    -2.8387041681e-12     1.6884963303e+01     2.8002076493e+01     3.4409615796e-05    -6.7756175876e-05    -4.4731456475e-05 3 0 0 0
73 1     1.8472316988e+00     2.7215759949e+01     0.0000000000e+00     0.0000000000e+00     4.8487903688e-13     1.7187123849e-12     1.8472316988e+00     2.7215759949e+01     2.0890369940e-04    -1.6979525490e-04    -1.5255103158e-03 3 0 0 0
74 1     2.2534447630e+00     2.5260477834e+01     0.0000000000e+00     0.0000000000e+00     1.1773806214e-12     1.3445812389e-12     2.2534447630e+00     2.5260477834e+01    -3.6739219986e-04    -1.1961000642e-03    -1.3487000773e-03 3 0 0 0
75 1     2.5906082571e+01     3.4923802011e+01     0.0000000000e+00     0.0000000000e+00     3.3969794208e-13     2.6043128157e-12     2.5906082571e+01     3.4923802011e+01    -1.2213506753e-04    -3.7973159393e-04    -1.0471354540e-03 4 0 0 0
76 1     3.5360866006e+00     2.3314919627e+01     0.0000000000e+00     0.0000000000e+00     5.7768314871e-12     4.5590935541e-12     3.5360866006e+00     2.3314919627e+01    -5.8269229877e-04    -5.4398705325e-04    -1.1210875825e-03 4 0 0 0
77 1     3.5247324073e+01     2.5283955924e+01     0.0000000000e+00     0.0000000000e+00    -3.3352817036e-12     2.5860569111e-12     3.5247324073e+01     2.5283955924e+01    -1.3762298074e-04    -1.5994248247e-03    -1.4584603667e-03 4 0 0 0
78 1     2.8415491555e+01     3.1211573531e+01     0.0000000000e+00     0.0000000000e+00    -4.2041224560e-12     3.6115099626e-12     2.8415491555e+01     3.1211573531e+01     6.3908582638e-05    -3.8616701830e-05    -7.2889882075e-04 3 0 0 0
79 1     7.9099478554e+00     3.6736147061e+01     0.0000000000e+00     0.0000000000e+00    -1.0911262806e-12     4.8611104291e-13     7.9099478554e+00     3.6736147061e+01    -3.7399030405e-04    -1.1930594710e-03    -1.0222339396e-03 3 0 0 0
80 1     3.7634973556e+00     2.7789149812e+01     0.0000000000e+00     0.0000000000e+00     0.0000000000e+00     0.0000000000e+00     3.7634973556e+00     2.7789149812e+01    -0.0000000000e+00    -0.0000000000e+00    -0.0000000000e+00 0 0 0 0
81 1     2.2316654989e+01     2.4082860296e+01     0.0000000000e+00     0.0000000000e+00     3.1711677555e-13    -1.6016045369e-12     2.2316654989e+01     2.4082860296e+01    -1.6604985821e-04    -2.5396869162e-03    -6.0395217283e-04 3 0 0 0
82 1     1.1654918019e+01     2.9658744182e+01     0.0000000000e+00     0.0000000000e+00     1.1334960206e-12    -7.6678789186e-14     1.1654918019e+01     2.9658744182e+01     3.6920428407e-04    -5.3057847258e-04    -1.8013489498e-03 4 0 0 0
83 1     3.5020827953e+01     3.0835233174e+01     0.0000000000e+00     0.0000000000e+00    -3.9491745377e-12     8.1392466551e-13     3.5020827953e+01     3.0835233174e+01    -9.1706972670e-05    -1.9736286585e-03    -2.5109788983e-03 5 0 0 0
84 1     4.0846074816e+00     2.1392328459e+01     0.0000000000e+00     0.0000000000e+00    -1.2692347173e-12     1.1330335541e-12     4.0846074816e+00     2.1392328459e+01     3.8898487402e-04    -1.8741916599e-03    -1.5880425686e-03 4 0 0 0
85 1     4.8523857536e+00     3.4201652375e+01     0.0000000000e+00     0.0000000000e+00     1.5795924139e-12    -2.2624985652e-12     4.8523857536e+00     3.4201652375e+01     8.8566210148e-04    -2.3489258014e-03    -2.9219554501e-03 4 0 0 0
86 1     1.8654274134e+01     2.1841621236e+01     0.0000000000e+00     0.0000000000e+00    -1.4369999331e-13    -6.5053192867e-13     1.8654274134e+01     2.1841621236e+01     1.1417421845e-04    -1.4035980632e-03    -2.4658249904e-03 4 0 0 0
87 1     3.8259876902e+01     1.9481874121e+01     0.0000000000e+00     0.0000000000e+00    -3.0452560504e-12     2.7987151984e-12     3.8259876902e+01     1.9481874121e+01     2.0139799302e-04    -1.0247067005e-03    -8.5691621396e-04 5 0 0 0
88 1     3.1701102320e+01     3.7375134334e+01     0.0000000000e+00     0.0000000000e+00     3.6376170088e-12     2.9507331908e-12     3.1701102320e+01     3.7375134334e+01     7.3267633207e-04    -1.1497883335e-03    -1.9690465268e-03 4 0 0 0
89 1     1.2989536281e+01     2.2243630682e+01     0.0000000000e+00     0.0000000000e+00     1.6661585306e-13    -2.2908899170e-13     1.2989536281e+01     2.2243630682e+01    -4.8575945871e-05    -9.4378350259e-04    -3.3000104724e-04 4 0 0 0
90 1     3.3051472024e+01     3.1176841314e+01     0.0000000000e+00     0.0000000000e+00     1.5646067883e-12     2.2822002534e-12     3.3051472024e+01     3.1176841314e+01    -6.7621402678e-04    -1.3494532813e-03    -1.1475148393e-03 5 0 0 0
91 1     1.4459141987e+01     3.5558086321e+01     0.0000000000e+00     0.0000000000e+00    -2.8436676232e-12    -3.1471161397e-12     1.4459141987e+01     3.5558086321e+01    -1.4958031650e-03    -2.6212195028e-03    -2.8148798712e-03 5 0 0 0
92 1     1.7560203532e+01     2.3512411160e+01     0.0000000000e+00     0.0000000000e+00     1.2644685375e-12    -3.3077570630e-12     1.7560203532e+01     2.3512411160e+01     7.1769577397e-05    -1.1292865240e-03    -1.2969897592e-03 4 0 0 0
93 1     3.7241222495e+01     2.5187461459e+01     0.0000000000e+00     0.0000000000e+00    -3.8393366279e-12    -9.6786878371e-13     3.7241222495e+01     2.5187461459e+01    -1.9540346545e-04    -1.9125054521e-03    -3.8158690749e-04 4 0 0 0
94 1     8.5390971832e+00     2.7419254483e+01     0.0000000000e+00     0.0000000000e+00    -1.3705181738e-12    -7.8055582288e-13     8.5390971832e+00     2.7419254483e+01    -1.7301783269e-04    -1.0649158828e-03    -6.4601932866e-04 5 0 0 0
95 1     2.9846243081e+01     2.7572510583e+01     0.0000000000e+00     0.0000000000e+00    -3.4265444215e-12     9.0090191167e-13     2.9846243081e+01     2.7572510583e+01     1.5001982272e-04    -4.2125277450e-04    -6.4264587296e-04 3 0 0 0
96 1     2.1488647744e+00     2.1877574051e+01     0.0000000000e+00     0.0000000000e+00     5.6928740151e-13     2.4715448329e-13     2.1488647744e+00     2.1877574051e+01    -1.2973350695e-04    -2.7405841466e-03    -5.2128291305e-04 4 0 0 0
97 1     9.6212493375e-01     3.1836184904e+01     0.0000000000e+00     0.0000000000e+00     1.3369424383e-12     1.4444670503e-12     9.6212493375e-01     3.1836184904e+01     5.8848512608e-05    -9.2460053326e-04    -1.8302037458e-03 4 0 0 0
98 1     2.3110936158e+01     2.7861006017e+01     0.0000000000e+00     0.0000000000e+00    -1.5963829108e-12     1.6049326039e-12     2.3110936158e+01     2.7861006017e+01     1.2278707883e-03    -1.6402689091e-03    -2.5149406602e-03 4 0 0 0
99 1     3.4238052414e+01     2.3561810939e+01     0.0000000000e+00     0.0000000000e+00    -8.2129344558e-13     9.2175372153e-13     3.4238052414e+01     2.3561810939e+01     1.6808604489e-04    -1.4233899826e-03    -2.0940325932e-03 4 0 0 0
100 1     8.3013624869e+00     2.3055765845e+01     0.0000000000e+00     0.0000000000e+00     5.8961028334e-14     7.7862824695e-13     8.3013624869e+00     2.3055765845e+01     7.6169092348e-04    -1.7698037803e-03    -1.9366145915e-03 4 0 0 0
101 1     2.2725658407e+01     3.9862025232e+01     0.0000000000e+00     0.0000000000e+00     3.3627465504e-13     2.3837472252e-12     2.2725658407e+01     3.9862025232e+01     2.2236040277e-05    -1.3549098553e-03    -8.1965924539e-04 4 0 0 0
102 1     2.1431127766e+01     3.3382024063e+01     0.0000000000e+00     0.0000000000e+00     6.2126454155e-13    -8.0661757655e-13     2.1431127766e+01     3.3382024063e+01     2.8394711251e-04    -1.1139790365e-03    -3.9082735885e-04 3 0 0 0
103 1     3.5464699976e+01     2.7270013911e+01     0.0000000000e+00     0.0000000000e+00     8.8661544740e-13     3.8840438569e-12     3.5464699976e+01     2.7270013911e+01    -1.2122294489e-04    -1.5686717039e-03    -1.1355725176e-03 5 0 0 0
104 1     3.3636009216e+01     2.6464491786e+01     0.0000000000e+00     0.0000000000e+00    -5.6549452350e-12    -6.8628913316e-14     3.3636009216e+01     2.6464491786e+01    -4.3947673331e-04    -1.5106007352e-03    -2.2247097378e-03 5 0 0 0
105 1     1.7477099827e+01     3.2953238422e+01     0.0000000000e+00     0.0000000000e+00     1.8528199266e-13     8.0121908999e-13     1.7477099827e+01     3.2953238422e+01    -5.9824515029e-06    -6.0746405501e-04    -3.6946430678e-04 4 0 0 0
106 1     1.6143725524e+01     3.6624728093e+01     0.0000000000e+00     0.0000000000e+00     2.4348770613e-12     1.8210057485e-12     1.6143725524e+01     3.6624728093e+01    -1.1544332830e-03    -2.7603065826e-03    -1.4098303286e-03 4 0 0 0
107 1     2.9604987086e+00     3.1830795479e+01     0.0000000000e+00     0.0000000000e+00     4.5690491829e-13    -1.0546657948e-13     2.9604987086e+00     3.1830795479e+01     3.8122203003e-04    -7.5091385441e-04    -8.2651350861e-04 3 0 0 0
108 1     1.4125481910e+01     2.0598412828e+01     0.0000000000e+00     0.0000000000e+00     3.4101616930e-13    -1.5551796233e-12     1.4125481910e+01     2.0598412828e+01    -4.2101551766e-05    -3.8874369344e-04    -2.8388548561e-04 3 0 0 0
109 1     3.1829014431e+01     2.7319505626e+01     0.0000000000e+00     0.0000000000e+00    -2.5595412427e-12     3.5972855554e-12     3.1829014431e+01     2.7319505626e+01     6.8011345774e-05    -5.4255412093e-04    -9.5671514567e-05 3 0 0 0
110 1     4.3084530963e+00     3.6120849367e+01     0.0000000000e+00     0.0000000000e+00     6.1454589247e-12     1.4958300169e-12     4.3084530963e+00     3.6120849367e+01     8.6000558639e-04    -1.8914505920e-03    -2.7131139916e-03 5 0 0 0
111 1     8.9046034253e+00     2.9384802573e+01     0.0000000000e+00     0.0000000000e+00     1.1046299780e-12    -4.2104866685e-13     8.9046034253e+00     2.9384802573e+01     1.6385254401e-04    -2.2001064032e-04    -5.8867186791e-04 4 0 0 0
112 1     7.0071020344e+00     3.0015869773e+01     0.0000000000e+00     0.0000000000e+00    -1.1860975933e-12    -5.3158591048e-12     7.0071020344e+00     3.0015869773e+01    -7.2382717880e-04    -9.7813604758e-04    -2.5180973479e-03 5 0 0 0
113 1     9.8493618946e+00     3.6257825578e+01     0.0000000000e+00     0.0000000000e+00    -5.7662404260e-13     6.6949262262e-12     9.8493618946e+00     3.6257825578e+01     1.6957798440e-04    -1.2205633546e-03    -2.4797024099e-04 4 0 0 0
114 1     1.0423221711e+01     2.8084736757e+01     0.0000000000e+00     0.0000000000e+00    -6.1030127891e-13     2.3661349301e-12     1.0423221711e+01     2.8084736757e+01    -1.0035216740e-04    -1.1320726906e-03    -5.8405143390e-04 5 0 0 0
115 1     1.0523397578e+01     3.8140741250e+01     0.0000000000e+00     0.0000000000e+00     3.9026891936e-12     5.5371301077e-12     1.0523397578e+01     3.8140741250e+01     4.8114237721e-05    -7.8219065227e-05    -1.0420965267e-04 4 0 0 0
116 1     2.9746370315e+01     3.7794515254e+01     0.0000000000e+00     0.0000000000e+00    -3.0964727581e-12     3.0623497241e-12     2.9746370315e+01     3.7794515254e+01    -5.3606666001e-04    -9.3203221491e-04    -5.6833922334e-04 4 0 0 0
117 1     6.2455730217e+00     3.5633294862e+01     0.0000000000e+00     0.0000000000e+00     5.6710625779e-13    -1.3122887109e-12     6.2455730217e+00     3.5633294862e+01    -3.4134915675e-04    -1.7568410066e-03    -7.2690470460e-04 4 0 0 0
118 1     8.4992780852e+00     3.1342011120e+01     0.0000000000e+00     0.0000000000e+00     6.3350164958e-12     2.2414753430e-12     8.4992780852e+00     3.1342011120e+01    -3.4366730051e-04    -3.7971315411e-03    -1.0689492210e-03 4 0 0 0
119 1     1.7743307316e+01     4.0586252551e+01     0.0000000000e+00     0.0000000000e+00     1.3747637469e-12    -3.6033518834e-13     1.7743307316e+01     4.0586252551e+01    -8.3281898163e-04    -1.6681149124e-03    -3.9515062519e-03 4 0 0 0
120 1     3.0395551557e+01     2.2943696743e+01     0.0000000000e+00     0.0000000000e+00     7.3637596671e-13     1.9760122358e-12     3.0395551557e+01     2.2943696743e+01    -2.8276971463e-04    -1.7736132258e-03    -7.8079184732e-04 4 0 0 0
121 1     3.1088675725e+01     3.9274405951e+01     0.0000000000e+00     0.0000000000e+00    -9.5301295067e-13     5.3243684418e-12     3.1088675725e+01     3.9274405951e+01     1.2590868313e-04    -1.0327423433e-03    -2.6822508665e-03 4 0 0 0