ITEM: TIMESTEP
0
ITEM: NUMBER OF ATOMS
4556
ITEM: BOX BOUNDS pp ff pp
0.0000000000000000e+00 1.5011186343322501e+02
0.0000000000000000e+00 1.6691186343322499e+02
-1.0000000000000000e-02 1.0000000000000000e-02
ITEM: ATOMS id type x y vx vy fx fy xu yu c_shearStr[4] c_shearStr[1] c_shearStr[2] v_coordA v_coordB v_coordA_wall v_coordB_wall
1 1     8.2705408860e+00     1.6057547647e+01     0.0000000000e+00     0.0000000000e+00     3.8573606657e-13     3.3532055713e-13     8.2705408860e+00     1.6057547647e+01    -4.3293490782e-05    -6.4889504608e-04    -1.3468930248e-03 4 0 0 0
2 1     2.7983555039e+01     7.1802069938e-01    -7.5055931717e-05     0.0000000000e+00    -3.4836546397e-04    -5.2673428310e-04     2.7983555039e+01     7.1802069938e-01     3.1212025569e-05    -1.0701157809e-03    -3.3425758639e-04 0 0 0 0
3 1     1.6809035872e+01     1.7900748286e+01     0.0000000000e+00     0.0000000000e+00    -6.5412088859e-13    -1.0310762660e-13     1.6809035872e+01     1.7900748286e+01    -5.8905283805e-05    -1.6723265907e-03    -1.2585452490e-03 4 0 0 0
4 1     1.1664040855e+01     1.5140277778e+01     0.0000000000e+00     0.0000000000e+00     9.3702027745e-13    -7.5453478101e-14     1.1664040855e+01     1.5140277778e+01    -7.7282707175e-05    -6.8887151233e-04    -4.8371989096e-04 5 0 0 0
5 1     2.4404280592e+01     8.2545521123e-01    -7.5055931717e-05     0.0000000000e+00    -5.1175504089e-04    -9.3545242254e-04     2.4404280592e+01     8.2545521123e-01    -3.8615837024e-04    -8.2295793200e-04    -7.2895241437e-04 0 0 0 0
6 1     1.6548272954e+00     7.7564524902e+00    -7.5055931717e-05     0.0000000000e+00     6.2681817022e-05    -1.3267909633e-05     1.6548272954e+00     7.7564524902e+00    -2.3721166988e-04    -2.7411175360e-03    -2.2373778628e-03 0 0 0 0
7 1     2.6425731960e+01     1.1552622074e+01     0.0000000000e+00     0.0000000000e+00    -9.8392431355e-15    -4.6425645446e-14     2.6425731960e+01     1.1552622074e+01    -1.1726155171e-04    -9.3539790609e-04    -7.2909582124e-04 3 0 0 0
8 1     2.2933371154e+01     6.5696441726e+00    -7.5055931717e-05     0.0000000000e+00     3.3221708804e-12    -1.1062666140e-10     2.2933371154e+01     6.5696441726e+00    -8.5227234933e-05    -1.1945173517e-03    -4.3080197132e-04 0 0 0 0
9 1     2.1003110977e+01     1.0111446241e+01     0.0000000000e+00     0.0000000000e+00    -3.8540519607e-07    -5.3645530562e-06     2.1003110977e+01     1.0111446241e+01    -3.5028751139e-04    -6.3677783852e-04    -2.1935858857e-03 2 0 1 0
10 1     2.0486719335e+01     1.9116210142e+01     0.0000000000e+00     0.0000000000e+00     3.3117692616e-13     1.7938759202e-13     2.0486719335e+01     1.9116210142e+01    -1.4994909491e-04    -1.4532170860e-03    -1.4774597226e-03 4 0 0 0
11 1     3.2171710465e+01     1.6591791459e+01     0.0000000000e+00     0.0000000000e+00    -5.2943738803e-13     2.1709782409e-13     3.2171710465e+01     1.6591791459e+01    -5.9099521985e-04    -1.8108950565e-03    -4.8321430659e-04 3 0 0 0
12 1     4.2263754170e+00     1.2507717431e+00    -7.5055931717e-05     0.0000000000e+00    -3.7353946421e-04    -4.1717470527e-04     4.2263754170e+00     1.2507717431e+00     4.6997575263e-04    -1.3961492678e-03    -5.6008691638e-04 0 0 0 0
13 1     1.7637879915e+01     1.2263338762e+01     0.0000000000e+00     0.0000000000e+00    -1.6765741220e-13     1.7440888143e-13     1.7637879915e+01     1.2263338762e+01     9.4189685753e-05    -6.2505135436e-04    -1.2378497529e-03 4 0 0 0
14 1     1.9868032497e+01     1.6688657622e+02     7.5055931717e-05     0.0000000000e+00    -1.9111211531e-04     3.5346368397e-04     1.9868032497e+01     1.6688657622e+02    -2.0078112658e-04    -2.2389391748e-03    -1.0290841312e-04 0 0 0 0
15 1     6.1620814289e+00     7.6201525046e-01    -7.5055931717e-05     0.0000000000e+00     4.8893888993e-04    -9.6858217975e-04     6.1620814289e+00     7.6201525046e-01     1.7010903737e-05    -1.1049140287e-03    -7.2604722076e-04 0 0 0 0
16 1     2.2203884434e+01     2.0138943328e+01     0.0000000000e+00     0.0000000000e+00     4.0224376293e-13     8.5714063885e-13     2.2203884434e+01     2.0138943328e+01     2.4008769278e-04    -9.9687079282e-04    -7.5816816682e-04 4 0 0 0
17 1     2.2151506616e+01     1.8013125190e+01     0.0000000000e+00     0.0000000000e+00     3.8745406623e-13    -2.9410583127e-14     2.2151506616e+01     1.8013125190e+01     4.2166801229e-04    -1.3041438689e-03    -5.6769668446e-04 4 0 0 0
18 1     8.0617765656e-01     1.7606354699e+01     0.0000000000e+00     0.0000000000e+00     3.8517089908e-13     9.1430023817e-15     8.0617765656e-01     1.7606354699e+01     2.8611560473e-04    -6.7887899883e-04    -9.0479059953e-04 4 0 0 0
19 1     1.7554366682e+01     1.4258921799e+01     0.0000000000e+00     0.0000000000e+00     3.9313138248e-13     3.1017403273e-13     1.7554366682e+01     1.4258921799e+01     5.1553966464e-04    -1.0503161333e-03    -1.3845191778e-03 4 0 0 0
20 1     4.5664901157e+00     1.0697813953e+01     0.0000000000e+00     0.0000000000e+00     9.4924420971e-14     8.5495195992e-14     4.5664901157e+00     1.0697813953e+01     1.7063572687e-04    -1.4864895667e-03    -2.1517588107e-03 3 0 0 0
21 1     3.5473927162e+01     1.0744566286e+01     0.0000000000e+00     0.0000000000e+00    -2.0782712278e-06    -1.2315332662e-05     3.5473927162e+01     1.0744566286e+01     3.9325673521e-04    -6.4202994492e-04    -9.7881609073e-04 3 0 1 0
22 1     1.5153978457e+01     6.4707932883e+00    -7.5055931717e-05     0.0000000000e+00     6.2014664342e-11    -1.0733429077e-10     1.5153978457e+01     6.4707932883e+00     1.9257283546e-04    -8.1639135403e-04    -3.7361277694e-04 0 0 0 0
23 1     2.9668990118e+01     8.0273733478e+00    -7.5055931717e-05     0.0000000000e+00     1.0797467977e-04    -2.0617349963e-05     2.9668990118e+01     8.0273733478e+00     1.7099577589e-04    -1.2061856186e-03    -1.2789071390e-03 0 0 0 0
24 1     6.4313177257e+00     2.7412202866e+00    -7.5055931717e-05     0.0000000000e+00     5.8993693394e-11     1.6724808821e-11     6.4313177257e+00     2.7412202866e+00     2.3859401239e-04    -1.2383172060e-03    -1.7117423433e-03 0 0 0 0
25 1     2.3869331390e+01     1.9035958919e+01     0.0000000000e+00     0.0000000000e+00     1.3147570055e-12     5.5480191838e-13     2.3869331390e+01     1.9035958919e+01    -2.0201087932e-04    -1.1094221730e-03    -1.5836019685e-03 5 0 0 0
26 1     3.2787739564e+01     3.1162284078e+00    -7.5055931717e-05     0.0000000000e+00    -1.7081508435e-11     4.2318227156e-11     3.2787739564e+01     3.1162284078e+00     6.7341223328e-04    -1.2599092508e-03    -1.4677562439e-03 0 0 0 0
27 1     3.4748540380e+01     3.9768681546e+00    -7.5055931717e-05     0.0000000000e+00     2.4876950299e-11     1.2058524226e-12     3.4748540380e+01     3.9768681546e+00    -1.6444839530e-05    -1.5807806687e-05    -1.4347931240e-04 0 0 0 0
28 1     1.8967073494e+01     6.2228640319e+00    -7.5055931717e-05     0.0000000000e+00     9.0300520084e-06    -2.4419286955e-05     1.8967073494e+01     6.2228640319e+00    -8.0885278535e-04    -1.4853487837e-03    -2.1478511421e-03 0 0 0 0
29 1     2.7639290686e+01     7.3621941742e+00    -7.5055931717e-05     0.0000000000e+00     1.5908161021e-06     1.0808429718e-05     2.7639290686e+01     7.3621941742e+00     3.9907678660e-05    -5.9917523315e-04    -7.8700906062e-04 0 0 0 0
30 1     3.1286420469e+01     1.1923803605e+01     0.0000000000e+00     0.0000000000e+00     6.8616188848e-13    -1.8674650585e-13     3.1286420469e+01     1.1923803605e+01     3.0598269186e-04    -8.2434162523e-04    -5.9171071461e-04 4 0 0 0
31 1     3.5646755569e+01     1.9419984952e+01     0.0000000000e+00     0.0000000000e+00    -8.4434260798e-13    -4.1061945510e-13     3.5646755569e+01     1.9419984952e+01    -8.1387508490e-04    -9.1862989687e-04    -2.4868290572e-03 4 0 0 0
32 1     1.5737584746e+01     8.3833608588e+00    -7.5055931717e-05     0.0000000000e+00     9.8499337946e-05    -3.2063458709e-05     1.5737584746e+01     8.3833608588e+00     5.4678086982e-05    -7.5080198272e-05    -2.0510569617e-04 0 0 0 0
33 1     1.3965184695e+01     2.0287964066e+00    -7.5055931717e-05     0.0000000000e+00     0.0000000000e+00     0.0000000000e+00     1.3965184695e+01     2.0287964066e+00    -0.0000000000e+00    -0.0000000000e+00    -0.0000000000e+00 0 0 0 0
34 1     2.6167069217e+01     1.6679902613e+02     7.5055931717e-05     0.0000000000e+00    -1.0087821280e-04     6.1960056219e-04     2.6167069217e+01     1.6679902613e+02     1.7210132214e-04    -2.7818213943e-04    -5.9435525067e-04 0 0 0 0
35 1     3.0131484794e+01     1.3555520930e+01     0.0000000000e+00     0.0000000000e+00     4.1152912783e-13     1.4451352441e-13     3.0131484794e+01     1.3555520930e+01    -3.0739073119e-04    -1.7345786966e-03    -1.3206836703e-03 5 0 0 0
36 1     1.9352193625e+01     1.1236924281e+01     0.0000000000e+00     0.0000000000e+00     1.3840523949e-13     1.7309507573e-13     1.9352193625e+01     1.1236924281e+01     4.2782237817e-04    -6.8258659534e-04    -3.1400273022e-04 3 0 0 0
37 1     1.3597615115e+01     1.4633184222e+01     0.0000000000e+00     0.0000000000e+00    -6.0053383707e-13     3.1249791166e-13     1.3597615115e+01     1.4633184222e+01    -9.1709455021e-04    -1.8147446113e-03    -1.6205296230e-03 5 0 0 0
38 1     3.4443745845e+01     2.0005313152e+00    -7.5055931717e-05     0.0000000000e+00    -1.3250669202e-10     1.1483882828e-12     3.4443745845e+01     2.0005313152e+00     2.4080726776e-04    -2.1624432241e-03    -7.6625704111e-04 0 0 0 0
39 1     9.7103107337e+00     4.6880026112e-01    -7.5055931717e-05     0.0000000000e+00     1.0749264743e-04    -3.7545340202e-04     9.7103107337e+00     4.6880026112e-01     3.7013937218e-04    -1.1966209218e-03    -2.1173873774e-04 0 0 0 0
40 1     1.7022958363e+01     5.7637820364e+00    -7.5055931717e-05     0.0000000000e+00     2.6929947530e-12    -8.1670739860e-11     1.7022958363e+01     5.7637820364e+00    -1.7017866428e-04    -1.0646194215e-03    -3.9062126694e-04 0 0 0 0
41 1     3.1126616944e+01     6.5506326443e+00    -7.5055931717e-05     0.0000000000e+00     4.4202575235e-06     1.7671131589e-05     3.1126616944e+01     6.5506326443e+00    -2.7671028464e-04    -5.6724052627e-04    -6.5073832050e-04 0 0 0 0
42 1     1.8534908894e+01     1.4637453965e+00    -7.5055931717e-05     0.0000000000e+00    -7.6641485485e-05    -9.6953544310e-04     1.8534908894e+01     1.4637453965e+00    -2.6570218237e-04    -1.3492016918e-03    -1.0024250226e-03 0 0 0 0
43 1     3.2870843370e+01     5.1121896756e+00    -7.5055931717e-05     0.0000000000e+00     4.3766214950e-12     3.9597205072e-11     3.2870843370e+01     5.1121896756e+00    -8.9021033020e-05    -3.7116915437e-05    -1.1665118459e-03 0 0 0 0
44 1     3.0366874852e+01     1.0053287746e+01     0.0000000000e+00     0.0000000000e+00     2.8172483877e-13     8.4315692449e-15     3.0366874852e+01     1.0053287746e+01     3.2017460057e-04    -2.8506257470e-04    -4.6032381056e-04 3 0 0 0
45 1     2.4458012909e+01     1.1207424814e+01     0.0000000000e+00     0.0000000000e+00    -1.9681196776e-13     8.7590086009e-13     2.4458012909e+01     1.1207424814e+01     2.4912191585e-04    -1.7394668741e-03    -1.8362807835e-03 5 0 0 0
46 1     8.0119043254e+00     1.5191531508e+00    -7.5055931717e-05     0.0000000000e+00    -4.3066843745e-11    -3.0077959435e-10     8.0119043254e+00     1.5191531508e+00     4.2967416942e-04    -1.1490226167e-03    -6.8082697257e-04 0 0 0 0
47 1     2.3895196967e+01     1.7039278868e+01     0.0000000000e+00     0.0000000000e+00     4.5950958526e-13    -1.2824370472e-12     2.3895196967e+01     1.7039278868e+01     7.8646782429e-04    -1.2954200288e-03    -1.9837991254e-03 4 0 0 0
48 1     1.6789150012e+01     1.0454667705e+01     0.0000000000e+00     0.0000000000e+00     1.8356532115e-13     3.2206491163e-13     1.6789150012e+01     1.0454667705e+01     8.3155554883e-05    -9.3858517033e-04    -8.8031543309e-04 3 0 0 0
49 1     2.9181366912e+01     6.0909074623e+00    -7.5055931717e-05     0.0000000000e+00    -1.0221688459e-11     5.6418803657e-11     2.9181366912e+01     6.0909074623e+00     5.8279836507e-05    -1.7173462393e-03    -1.7265028944e-03 0 0 0 0
50 1     3.0486598116e+01     1.5520964185e+01     0.0000000000e+00     0.0000000000e+00     1.1691772767e-12    -4.5985659941e-13     3.0486598116e+01     1.5520964185e+01    -2.6770133835e-04    -1.3138525243e-03    -9.9173885784e-04 3 0 0 0
51 1     1.0571571534e-01     6.5004033241e+00    -7.5055931717e-05     0.0000000000e+00    -3.8318999449e-11    -6.5700940565e-11     1.0571571534e-01     6.5004033241e+00    -1.1089757906e-03    -1.7705977989e-03    -1.3797194490e-03 0 0 0 0
52 1     2.9296218965e+01     1.1740976053e+01     0.0000000000e+00     0.0000000000e+00    -2.2010182305e-12    -2.8090389173e-12     2.9296218965e+01     1.1740976053e+01    -2.5852670652e-04    -1.1136015799e-03    -1.8003726257e-03 5 0 0 0
53 1     3.1611655365e+01     8.4897011504e+00     0.0000000000e+00     0.0000000000e+00    -1.1427051080e-04     2.9320092149e-06     3.1611655365e+01     8.4897011504e+00    -1.7447860478e-04    -1.6058575503e-03    -1.5148330375e-03 2 0 3 0
54 1     3.0514918360e+00     4.6119521153e+00    -7.5055931717e-05     0.0000000000e+00     1.9741393253e-11    -1.0262026949e-10     3.0514918360e+00     4.6119521153e+00    -3.9233557103e-04    -1.2958570702e-03    -2.2069689218e-03 0 0 0 0
55 1     4.3069516445e+00     1.4563934684e+01     0.0000000000e+00     0.0000000000e+00     2.8702794265e-13    -5.1042416821e-13     4.3069516445e+00     1.4563934684e+01     2.8037674055e-04    -9.9565047728e-04    -1.7878757408e-03 3 0 0 0
56 1     2.4561342001e+01     1.3202010654e+01     0.0000000000e+00     0.0000000000e+00     1.9603540796e-13    -5.1896919921e-13     2.4561342001e+01     1.3202010654e+01    -1.2148280054e-04    -2.9521929172e-04    -1.3734949775e-03 3 0 0 0
57 1     3.3559952522e+01     1.5125595504e+01     0.0000000000e+00     0.0000000000e+00     2.7063982565e-12     2.6416198872e-12     3.3559952522e+01     1.5125595504e+01    -4.8021938390e-04    -4.7745477218e-04    -1.4980722056e-03 3 0 0 0
58 1     3.2120053904e+01     1.3740870508e+01     0.0000000000e+00     0.0000000000e+00     2.4163971605e-13     7.0182195559e-14     3.2120053904e+01     1.3740870508e+01    -2.6873512090e-04    -1.4447150354e-03    -5.1872796241e-04 4 0 0 0
59 1     1.8061243260e+01     1.6192175757e+01     0.0000000000e+00     0.0000000000e+00     2.9896587593e-13     1.9341776444e-13     1.8061243260e+01     1.6192175757e+01    -3.8912901936e-04    -1.3572642141e-03    -7.3455812620e-04 4 0 0 0
60 1     3.8298409733e-01     1.4026689669e+01     0.0000000000e+00     0.0000000000e+00     7.5141661556e-13    -1.8139038448e-13     3.8298409733e-01     1.4026689669e+01    -9.7734087442e-04    -1.5005892993e-03    -1.4028780222e-03 4 0 0 0
61 1     9.7729443660e+00     1.9491424127e+01     0.0000000000e+00     0.0000000000e+00     1.4049723976e-12    -8.0576617969e-13     9.7729443660e+00     1.9491424127e+01    -2.0039923979e-04    -3.8103534434e-03    -1.3007264854e-03 5 0 0 0
62 1     8.2387693349e+00     9.3835885056e+00     0.0000000000e+00     0.0000000000e+00    -1.8575970205e-07    -3.7293245797e-06     8.2387693349e+00     9.3835885056e+00    -6.0674316243e-04    -3.0657434050e-03    -1.5732325422e-03 4 0 1 0
63 1     3.3047949172e+01     7.1019599335e+00    -7.5055931717e-05     0.0000000000e+00     3.8815762438e-05    -3.7503602201e-05     3.3047949172e+01     7.1019599335e+00     3.6298866666e-05    -1.4475881162e-03    -1.3008996457e-03 0 0 0 0
64 1     1.1997154866e+01     1.0382412390e+01     0.0000000000e+00     0.0000000000e+00     3.8880601213e-14     3.4555691641e-15     1.1997154866e+01     1.0382412390e+01    -3.6758888468e-04    -1.2499199207e-03    -1.1276667795e-03 4 0 0 0
65 1     2.3207218283e+01     2.4257114383e+00    -7.5055931717e-05     0.0000000000e+00     3.9162388013e-11    -9.0538203399e-11     2.3207218283e+01     2.4257114383e+00    -5.2346929652e-05    -7.1837711127e-04    -6.3537557700e-04 0 0 0 0
66 1     2.8528817387e+01     3.0811891912e+00    -7.5055931717e-05     0.0000000000e+00     3.5810804192e-12     2.8972101763e-11     2.8528817387e+01     3.0811891912e+00    -1.0722113881e-04    -3.2528347624e-04    -7.1384208988e-05 0 0 0 0
67 1     1.6537650543e+01     1.4263327193e+00    -7.5055931717e-05     0.0000000000e+00    -3.5375521830e-04    -7.5962307001e-04     1.6537650543e+01     1.4263327193e+00     2.6662923016e-04    -6.8744919580e-04    -8.5248981108e-04 0 0 0 0
68 1     4.4946343538e+00     3.2313031916e+00    -7.5055931717e-05     0.0000000000e+00     2.5912273412e-11    -1.2429399675e-10     4.4946343538e+00     3.2313031916e+00     4.3665647919e-04    -9.0259236656e-04    -7.0628031849e-04 0 0 0 0
69 1     3.9564223219e+01     1.7082679612e+01     0.0000000000e+00     0.0000000000e+00     2.0860976791e-13    -8.9782651799e-13     3.9564223219e+01     1.7082679612e+01    -1.7749150369e-04    -1.0376219943e-03    -1.8332462969e-03 5 0 0 0
70 1     1.8799916256e+01     1.8048849457e+01     0.0000000000e+00     0.0000000000e+00     7.6709417898e-13    -4.2650854636e-13     1.8799916256e+01     1.8048849457e+01     1.2408380135e-04    -2.2668018810e-03    -1.7185715149e-03 5 0 0 0
71 1     2.5598347209e+01     9.5679146597e+00     0.0000000000e+00     0.0000000000e+00    -1.6161080841e-06    -1.0894344001e-05     2.5598347209e+01     9.5679146597e+00     1.3084872846e-04    -1.3625504154e-03    -1.2122685622e-03 3 0 1 0
72 1     3.7501611470e+01     2.0162243706e+01     0.0000000000e+00     0.0000000000e+00     2.1756019295e-12     5.6214944808e-13     3.7501611470e+01     2.0162243706e+01    -1.9466357197e-04    -8.3427161050e-04    -6.5091727361e-04 4 0 0 0
73 1     5.3667670411e+00     1.9074922750e+01     0.0000000000e+00     0.0000000000e+00     5.5829581409e-13     8.0485260383e-14     5.3667670411e+00     1.9074922750e+01     9.6359741791e-05    -2.1911103802e-03    -1.4151450223e-03 5 0 0 0
74 1     4.9139099959e+00     1.2662559120e+01     0.0000000000e+00     0.0000000000e+00     2.0002794180e-13     3.8185904430e-13     4.9139099959e+00     1.2662559120e+01    -5.6190746790e-05    -8.7346450301e-04    -2.4310773671e-03 5 0 0 0
75 1     1.1640969640e+01     2.5590218870e+01     0.0000000000e+00     0.0000000000e+00     6.4878208735e-13     4.6282380326e-13     1.1640969640e+01     2.5590218870e+01     6.6354869460e-05    -7.2293792642e-05    -3.2744372052e-04 3 0 0 0
76 1     2.7787676610e+01     2.8535722895e+01     0.0000000000e+00     0.0000000000e+00     3.5112674758e-13    -5.4133802475e-13     2.7787676610e+01     2.8535722895e+01    -4.5934166966e-04    -2.3040259652e-03    -7.5622582039e-04 4 0 0 0
77 1     6.2617371215e+00     2.0861171824e+01     0.0000000000e+00     0.0000000000e+00    -1.9894855078e-13     1.7929936168e-13     6.2617371215e+00     2.0861171824e+01     2.5606581189e-05    -1.5687706464e-03    -8.6309968248e-04 4 0 0 0
78 1     2.7402764586e+01     3.6371128352e+01     0.0000000000e+00     0.0000000000e+00    -1.2622251877e-13     5.9438847073e-13     2.7402764586e+01     3.6371128352e+01     1.3959106316e-04    -4.8954679864e-04    -7.9319410391e-05 3 0 0 0
79 1     8.2569928176e+00     2.0790072593e+01     0.0000000000e+00     0.0000000000e+00    -2.5041720000e-13     7.3071420876e-13     8.2569928176e+00     2.0790072593e+01     4.9464053701e-04    -1.6807472023e-03    -1.0423829969e-03 4 0 0 0
80 1     3.3170400985e+01     3.6137232707e+01     0.0000000000e+00     0.0000000000e+00     1.2972130152e-12    -2.1656304137e-13     3.3170400985e+01     3.6137232707e+01     1.7924678887e-04    -3.0596004623e-04    -2.5146506631e-04 3 0 0 0
81 1     3.5476205136e+01     3.0099390903e+01     0.0000000000e+00     0.0000000000e+00     1.1028938993e-12     1.7803266457e-13     3.5476205136e+01     3.0099390903e+01     1.8970038565e-04    -9.6413616877e-04    -9.2063503273e-04 5 0 0 0
82 1     1.8599101945e+01     2.6365863261e+01     0.0000000000e+00     0.0000000000e+00    -1.8578953480e-13    -5.6045435220e-13     1.8599101945e+01     2.6365863261e+01     6.7444331333e-04    -8.3224585321e-04    -1.4354521749e-03 4 0 0 0
83 1     3.3888395804e+01     3.8058494939e+01     0.0000000000e+00     0.0000000000e+00     0.0000000000e+00     0.0000000000e+00     3.3888395804e+01     3.8058494939e+01    -0.0000000000e+00    -0.0000000000e+00    -0.0000000000e+00 0 0 0 0
84 1     2.5144246004e+01     2.3219454423e+01     0.0000000000e+00     0.0000000000e+00     1.2885113915e-12     8.1067086637e-13     2.5144246004e+01     2.3219454423e+01     4.7651462526e-04    -7.9276875540e-04    -8.9750569663e-04 4 0 0 0
85 1     1.6052253317e+01     3.2244102052e+01     0.0000000000e+00     0.0000000000e+00     1.2071288522e-12    -3.2217593393e-13     1.6052253317e+01     3.2244102052e+01     3.1313637309e-04    -2.8371675129e-04    -7.8824962967e-04 3 0 0 0
86 1     2.0553112172e+01     2.6787528169e+01     0.0000000000e+00     0.0000000000e+00     2.0302831681e-12     5.1928124615e-13     2.0553112172e+01     2.6787528169e+01    -1.2093038351e-04    -5.1920507505e-04    -4.5715795442e-05 3 0 0 0
87 1     2.6161525914e+01     3.8744717794e+01     0.0000000000e+00     0.0000000000e+00     1.0866209581e-12    -1.8259666782e-13     2.6161525914e+01     3.8744717794e+01    -2.3767566670e-04    -5.0639688989e-04    -5.9262769403e-04 4 0 0 0
88 1     5.3652939888e+00     3.4978430627e+01     0.0000000000e+00     0.0000000000e+00     3.3092438566e-12    -4.3920748115e-13     5.3652939888e+00     3.4978430627e+01    -2.3283429867e-04    -8.2711462274e-04    -6.1220124347e-04 5 0 0 0
89 1     3.2272747061e+01     3.9820756059e+01     0.0000000000e+00     0.0000000000e+00     1.2370452427e-12    -2.0460038828e-12     3.2272747061e+01     3.9820756059e+01    -6.0182824891e-05    -8.1310103386e-04    -9.0211546942e-04 3 0 0 0
90 1     1.6607612217e+00     3.4950938913e+01     0.0000000000e+00     0.0000000000e+00     1.2701366516e-12     4.8131435632e-13     1.6607612217e+00     3.4950938913e+01    -4.8381181640e-05    -2.4657620908e-04    -2.2999690804e-04 3 0 0 0
91 1     7.1354687640e+00     3.5906004986e+01     0.0000000000e+00     0.0000000000e+00     1.2600911254e-12    -5.9339645285e-13     7.1354687640e+00     3.5906004986e+01     4.5607590870e-05    -1.0482923831e-03    -4.3464316000e-04 4 0 0 0
92 1     1.5612576229e+01     3.6026907774e+01     0.0000000000e+00     0.0000000000e+00     1.5390026222e-12    -2.6965560861e-13     1.5612576229e+01     3.6026907774e+01     2.5079140084e-04    -1.8142541918e-03    -2.9399482553e-03 4 0 0 0
93 1     1.8847067369e+00     2.2287932042e+01     0.0000000000e+00     0.0000000000e+00    -7.6475392859e-14     1.8284446223e-14     1.8847067369e+00     2.2287932042e+01     7.3872840039e-04    -1.9486402044e-03    -8.7465906861e-04 4 0 0 0
94 1     5.6706396748e+00     3.2078226885e+01     0.0000000000e+00     0.0000000000e+00     2.1900051217e-12     4.8885418283e-13     5.6706396748e+00     3.2078226885e+01     9.4797540877e-04    -2.3821154724e-03    -1.4864445349e-03 4 0 0 0
95 1     2.3766942074e+01     2.4665951319e+01     0.0000000000e+00     0.0000000000e+00     5.4726671328e-13    -8.2096699230e-13     2.3766942074e+01     2.4665951319e+01     9.0308978722e-05    -1.3159855042e-03    -1.2218403141e-03 4 0 0 0
96 1     3.3271682845e+01     2.6118886016e+01     0.0000000000e+00     0.0000000000e+00     1.0003887231e-12     1.4104762280e-12     3.3271682845e+01     2.6118886016e+01     2.4969390992e-04    -1.4705497967e-03    -1.3496939919e-03 5 0 0 0
97 1     7.4358792732e+00     3.8340630913e+01     0.0000000000e+00     0.0000000000e+00     1.2880611969e-12    -4.9545378922e-13     7.4358792732e+00     3.8340630913e+01     1.4974161689e-04    -1.5279583104e-04    -1.6116120953e-04 3 0 0 0
98 1     3.0543767767e+01     2.0530231010e+01     0.0000000000e+00     0.0000000000e+00     4.0376431582e-13    -2.2791235452e-13     3.0543767767e+01     2.0530231010e+01     6.2208729369e-05    -1.1139532054e-04    -1.1315267669e-03 3 0 0 0
99 1     1.9169515854e+01     2.9736883627e+01     0.0000000000e+00     0.0000000000e+00     9.4251878166e-13    -7.2371707965e-14     1.9169515854e+01     2.9736883627e+01    -3.7492556823e-04    -5.4407302583e-04    -4.0885531789e-04 3 0 0 0
100 1     6.8779025856e+00     3.3671145998e+01     0.0000000000e+00     0.0000000000e+00     3.4907325511e-13    -6.7301502912e-13     6.8779025856e+00     3.3671145998e+01    -2.0787887254e-04    -6.0053870307e-04    -3.4178748493e-04 3 0 0 0
101 1     2.3483099835e+01     3.2610209527e+01     0.0000000000e+00     0.0000000000e+00     1.3667458007e-12     4.0880612697e-13     2.3483099835e+01     3.2610209527e+01    -1.6998588353e-04    -3.3806559884e-04    -1.2861125301e-03 4 0 0 0
102 1     1.7598788938e+01     3.7036653249e+01     0.0000000000e+00     0.0000000000e+00    -7.9725378317e-13     1.4502957212e-12     1.7598788938e+01     3.7036653249e+01     2.1317938709e-04    -1.0008138472e-03    -9.1315673183e-04 4 0 0 0
103 1     2.5467150000e+01     3.6870517804e+01     0.0000000000e+00     0.0000000000e+00     1.6298815731e-12     8.3026489330e-13     2.5467150000e+01     3.6870517804e+01    -1.7450121394e-05    -4.5890691463e-04    -1.1108653698e-03 5 0 0 0
104 1     1.5572557969e+01     2.6599395418e+01     0.0000000000e+00     0.0000000000e+00     8.8265191597e-13     2.6204624408e-14     1.5572557969e+01     2.6599395418e+01    -1.9389843527e-04    -1.7966563668e-03    -1.5340121262e-03 4 0 0 0
105 1     2.1866617995e+01     2.5279422984e+01     0.0000000000e+00     0.0000000000e+00     7.9678657335e-13     7.3635569213e-14     2.1866617995e+01     2.5279422984e+01    -6.7321638408e-04    -2.0158187086e-03    -1.1464829853e-03 4 0 0 0
106 1     1.0066360166e+01     2.4169200781e+01     0.0000000000e+00     0.0000000000e+00     1.5231339692e-12     1.9533711993e-13     1.0066360166e+01     2.4169200781e+01     1.6596040611e-06    -2.2654077145e-06    -2.5134951028e-06 3 0 0 0
107 1     3.5409058273e+00     3.9345603112e+01     0.0000000000e+00     0.0000000000e+00     1.1865999448e-12    -7.8206470705e-13     3.5409058273e+00     3.9345603112e+01    -2.1434438794e-04    -7.7362655384e-04    -2.6724220733e-04 3 0 0 0
108 1     1.8053865851e+01     2.2509656923e+01     0.0000000000e+00     0.0000000000e+00     9.2800989332e-13     3.7076418324e-13     1.8053865851e+01     2.2509656923e+01    -6.5455147003e-05    -1.0248647543e-03    -1.8791959946e-03 5 0 0 0
109 1     3.6091646658e+01     2.8198210150e+01     0.0000000000e+00     0.0000000000e+00     1.7539328822e-12     1.4940070123e-12     3.6091646658e+01     2.8198210150e+01     1.0953920128e-04    -1.2720832974e-03    -1.1304127251e-03 5 0 0 0
110 1     3.0056023904e+01     3.9688275152e+01     0.0000000000e+00     0.0000000000e+00     0.0000000000e+00     0.0000000000e+00     3.0056023904e+01     3.9688275152e+01    -0.0000000000e+00    -0.0000000000e+00    -0.0000000000e+00 0 0 0 0
111 1     3.4275756366e+01     2.4392254760e+01     0.0000000000e+00     0.0000000000e+00     6.4473030864e-13     1.8873780577e-13     3.4275756366e+01     2.4392254760e+01    -1.0451552711e-04    -1.2301918006e-03    -1.0952009665e-03 3 0 0 0
112 1     2.3495842196e+01     3.6533103505e+01     0.0000000000e+00     0.0000000000e+00     3.1151695552e-12     1.8253418423e-12     2.3495842196e+01     3.6533103505e+01    -1.7909790973e-05    -1.6049067303e-05    -3.0974331471e-05 3 0 0 0
113 1     3.2039378728e+01     2.4545017964e+01     0.0000000000e+00     0.0000000000e+00    -6.8928898505e-13    -2.1253933672e-12     3.2039378728e+01     2.4545017964e+01    -2.6454043238e-04    -2.7687889921e-04    -3.5608715576e-04 3 0 0 0
114 1     8.8522039148e+00     3.6929326935e+01     0.0000000000e+00     0.0000000000e+00     1.1407063445e-12     5.8733584402e-13     8.8522039148e+00     3.6929326935e+01    -3.2019515590e-04    -5.3158349401e-04    -1.1405691896e-03 4 0 0 0
115 1     1.9824219927e+01     3.3840327453e+01     0.0000000000e+00     0.0000000000e+00     1.4224613901e-12     7.9991568924e-14     1.9824219927e+01     3.3840327453e+01     3.9653956758e-04    -7.1606165214e-04    -1.4461040092e-03 4 0 0 0
116 1     2.4190754658e+01     3.8408425181e+01     0.0000000000e+00     0.0000000000e+00     2.5066005180e-12    -3.2710664689e-12     2.4190754658e+01     3.8408425181e+01     2.4079165834e-04    -7.2451710605e-04    -5.3583130805e-04 5 0 0 0
117 1     1.1322052684e+00     2.4138723075e+01     0.0000000000e+00     0.0000000000e+00     7.4362025326e-13     2.8549779457e-13     1.1322052684e+00     2.4138723075e+01     2.3835419140e-04    -2.3282980509e-04    -1.0548809341e-03 4 0 0 0
118 1     2.9743997733e+01     2.8929091153e+01     0.0000000000e+00     0.0000000000e+00     1.1130840986e-12    -5.4879169785e-13     2.9743997733e+01     2.8929091153e+01    -4.0300070152e-05    -2.4146170912e-03    -1.0074244669e-03 4 0 0 0
119 1     5.4925688849e+00     2.2705086298e+01     0.0000000000e+00     0.0000000000e+00     9.2110601915e-13    -4.2728033568e-13     5.4925688849e+00     2.2705086298e+01    -9.3296925046e-05    -7.0552200889e-04    -1.5000289453e-03 5 0 0 0
120 1     3.1610969583e+01     2.9633837372e+01     0.0000000000e+00     0.0000000000e+00     1.4471555464e-12     1.3548884237e-13     3.1610969583e+01     2.9633837372e+01    -6.7673370489e-04    -1.9503208811e-03    -7.4868508012e-04 3 0 0 0
121 1     2.8014256841e+01     3.9494425570e+01     0.0000000000e+00     0.0000000000e+00     1.2853804121e-12    -1.3962326846e-12     2.8014256841e+01     3.9494425570e+01    -1.3474448773e-04    -4.1066756259e-04    -8.6799815958e-04 3 0 0 0