ITEM: TIMESTEP
0
ITEM: NUMBER OF ATOMS
4556
ITEM: BOX BOUNDS pp ff pp
0.0000000000000000e+00 1.5011186343322501e+02
0.0000000000000000e+00 1.6691186343322499e+02
-1.0000000000000000e-02 1.0000000000000000e-02
ITEM: ATOMS id type x y vx vy fx fy xu yu c_shearStr[4] c_shearStr[1] c_shearStr[2] v_coordA v_coordB v_coordA_wall v_coordB_wall
1 1     6.1044517795e+00     1.0625561062e+01     0.0000000000e+00     0.0000000000e+00    -4.2104608191e-06    -1.7271127218e-05     6.1044517795e+00     1.0625561062e+01     3.1469230883e-04    -6.1066665194e-04    -8.0789179500e-04 3 0 1 0
2 1     3.1952619180e+01     1.2229275355e+01     0.0000000000e+00     0.0000000000e+00     1.1945814075e-13     4.6144430508e-13     3.1952619180e+01     1.2229275355e+01     1.7718112057e-04    -2.0419289128e-04    -6.3718583598e-04 4 0 0 0
3 1     3.6500702372e+01     1.1155104951e+01     0.0000000000e+00     0.0000000000e+00    -5.1325426114e-14     5.8556658871e-13     3.6500702372e+01     1.1155104951e+01     2.0173858935e-04    -7.6325236453e-04    -5.3232333434e-04 3 0 0 0
4 1     6.5411719675e+00     1.2576508656e+01     0.0000000000e+00     0.0000000000e+00    -6.8706563876e-13     1.1449099860e-12     6.5411719675e+00     1.2576508656e+01    -8.0104271670e-05    -1.0569229316e-03    -6.2344782461e-04 5 0 0 0
5 1     2.9349400830e+01     1.4781363671e+01     0.0000000000e+00     0.0000000000e+00     1.7702867709e-12    -4.2779589550e-12     2.9349400830e+01     1.4781363671e+01     3.8543136477e-04    -4.8131167149e-04    -1.1782017409e-03 3 0 0 0
6 1     1.4749290282e+01     1.8108590012e+01     0.0000000000e+00     0.0000000000e+00     7.4881431351e-13    -6.5091541098e-14     1.4749290282e+01     1.8108590012e+01    -5.0433165392e-04    -1.3765325769e-03    -3.6710612023e-04 3 0 0 0
7 1     2.5542047658e+01     1.7727963617e+01     0.0000000000e+00     0.0000000000e+00     4.7464484600e-13    -8.4796237957e-13     2.5542047658e+01     1.7727963617e+01    -1.6351881247e-04    -4.7252585812e-04    -3.2735496566e-04 3 0 0 0
8 1     2.7259737212e+01     1.8749925460e+01     0.0000000000e+00     0.0000000000e+00    -1.9257978458e-13     3.1044308834e-12     2.7259737212e+01     1.8749925460e+01     3.1089621762e-04    -1.9166074076e-03    -1.4634950291e-03 4 0 0 0
9 1     3.1381417337e+01     9.2049288787e+00     0.0000000000e+00     0.0000000000e+00    -4.1809307198e-07     5.5861959032e-06     3.1381417337e+01     9.2049288787e+00    -2.1853107690e-04    -1.9486782972e-03    -2.1251797194e-03 4 0 1 0
10 1     3.3256194857e+01     8.5106809076e+00     0.0000000000e+00     0.0000000000e+00    -9.9686807230e-05    -9.1567921005e-06     3.3256194857e+01     8.5106809076e+00     2.5014082838e-04    -1.3937208987e-03    -1.2125785334e-03 2 0 2 0
11 1     2.2800388531e+01     3.4599053290e+00    -7.5055931717e-05     0.0000000000e+00     8.3071194671e-11    -7.9952858672e-11     2.2800388531e+01     3.4599053290e+00     1.1195059639e-04    -9.5847787909e-04    -1.9064323759e-04 0 0 0 0
12 1     2.5669149710e+01     1.3060702414e+01     0.0000000000e+00     0.0000000000e+00     6.5258098269e-13    -4.0377686885e-13     2.5669149710e+01     1.3060702414e+01    -3.4441606244e-05    -9.6687913209e-05    -3.7253372026e-05 3 0 0 0
13 1     2.8885371427e+01     1.6674749257e+02     7.5055931717e-05     0.0000000000e+00     0.0000000000e+00     0.0000000000e+00     2.8885371427e+01     1.6674749257e+02    -0.0000000000e+00    -0.0000000000e+00    -0.0000000000e+00 0 0 0 0
14 1     3.1937347106e+01     3.9589168760e+00    -7.5055931717e-05     0.0000000000e+00    -1.4059359525e-11     6.4016897896e-11     3.1937347106e+01     3.9589168760e+00     2.3613785610e-05    -1.2773718043e-04    -1.8296572569e-05 0 0 0 0
15 1     2.5723928805e+01     2.0024135366e+01     0.0000000000e+00     0.0000000000e+00     4.2163538828e-12    -1.0202091992e-12     2.5723928805e+01     2.0024135366e+01     8.0582919880e-04    -1.5772088399e-03    -1.1483408108e-03 3 0 0 0
16 1     1.4071340254e+01     1.6227985698e+01     0.0000000000e+00     0.0000000000e+00    -5.8738028411e-12     5.3815382868e-12     1.4071340254e+01     1.6227985698e+01     6.5868342795e-04    -2.4806828070e-03    -1.9756520930e-03 5 0 0 0
17 1     1.0247350345e+01     4.1399897515e+00    -7.5055931717e-05     0.0000000000e+00    -2.5398499981e-11    -5.8161910618e-11     1.0247350345e+01     4.1399897515e+00     1.6114118900e-03    -3.0656538102e-03    -1.9067707172e-03 0 0 0 0
18 1     1.2696273390e+00     1.5371601667e+01     0.0000000000e+00     0.0000000000e+00    -9.1080073171e-13    -4.1449101077e-12     1.2696273390e+00     1.5371601667e+01     5.6419961709e-04    -1.9312937233e-03    -2.1710325334e-03 5 0 0 0
19 1     3.7304356008e+01     1.6713347935e+01     0.0000000000e+00     0.0000000000e+00     3.6568271198e-12    -1.1001791925e-12     3.7304356008e+01     1.6713347935e+01     7.9164759083e-04    -2.3683953177e-03    -1.0459596894e-03 4 0 0 0
20 1     2.6295868965e+01     1.0006833793e+01     0.0000000000e+00     0.0000000000e+00    -4.6905332557e-06     1.8167305971e-05     2.6295868965e+01     1.0006833793e+01    -1.3148162876e-04    -3.8467521125e-04    -4.7482824387e-04 3 0 1 0
21 1     3.4944938191e+01     9.8920603202e+00     0.0000000000e+00     0.0000000000e+00     0.0000000000e+00     0.0000000000e+00     3.4944938191e+01     9.8920603202e+00    -0.0000000000e+00    -0.0000000000e+00    -0.0000000000e+00 0 0 0 0
22 1     2.2066375215e+01     8.1269817358e+00    -7.5055931717e-05     0.0000000000e+00     1.3317021556e-04    -7.4602851270e-06     2.2066375215e+01     8.1269817358e+00     4.1371952089e-04    -9.7474932094e-04    -1.2101186611e-03 0 0 0 0
23 1     3.0076550454e+01     1.2921134240e+01     0.0000000000e+00     0.0000000000e+00     1.9357463766e-12     1.9878998350e-12     3.0076550454e+01     1.2921134240e+01     6.4491450667e-05    -5.9321088448e-04    -1.5513525922e-03 5 0 0 0
24 1     3.5575782091e+01     5.1231709388e+00    -7.5055931717e-05     0.0000000000e+00    -2.9249375189e-10     5.0061954582e-11     3.5575782091e+01     5.1231709388e+00     5.1548999581e-04    -1.1030756246e-03    -1.5514960634e-03 0 0 0 0
25 1     6.4035564603e+00     1.9774879469e+01     0.0000000000e+00     0.0000000000e+00    -5.1120091233e-12    -7.6563625231e-13     6.4035564603e+00     1.9774879469e+01     1.0173169418e-04    -3.1391305095e-03    -3.1719513080e-03 5 0 0 0
26 1     3.1411092223e+00     8.2738724460e+00    -7.5055931717e-05     0.0000000000e+00     7.5280496499e-05     2.0205189588e-07     3.1411092223e+00     8.2738724460e+00     3.6451656508e-04    -2.1753337895e-03    -7.6297719964e-04 0 0 0 0
27 1     7.5810758842e+00     7.0573406266e+00    -7.5055931717e-05     0.0000000000e+00     4.2905891171e-06     1.7424439813e-05     7.5810758842e+00     7.0573406266e+00     1.3254356585e-03    -2.6123231254e-03    -4.1361948869e-03 0 0 0 0
28 1     1.4962385581e+02     5.1943094079e+00    -7.5055931717e-05     0.0000000000e+00    -8.7144358841e-12    -7.3669441044e-13     1.4962385581e+02     5.1943094079e+00    -1.1798935276e-04    -2.9402300750e-04    -2.8010043066e-04 0 0 0 0
29 1     3.2741562063e+01     1.4073790942e+00    -7.5055931717e-05     0.0000000000e+00     3.0567797179e-04    -6.6342294342e-04     3.2741562063e+01     1.4073790942e+00     2.5121315691e-04    -2.7765088992e-03    -1.9130856225e-04 0 0 0 0
30 1     7.7386220156e+00     1.4177079776e+01     0.0000000000e+00     0.0000000000e+00    -1.9098074359e-12     1.4145114252e-12     7.7386220156e+00     1.4177079776e+01    -1.3725833471e-05    -9.4104910195e-04    -1.2986028216e-03 5 0 0 0
31 1     2.2706353710e+01     1.6276808133e+01     0.0000000000e+00     0.0000000000e+00     2.5339310999e-12    -3.5133593083e-13     2.2706353710e+01     1.6276808133e+01     8.5080994924e-06    -1.3928335741e-03    -6.5533641838e-04 4 0 0 0
32 1     2.7331511267e+01     4.2824348542e+00    -7.5055931717e-05     0.0000000000e+00    -1.1173621273e-11    -1.4064019480e-11     2.7331511267e+01     4.2824348542e+00     8.5293699951e-04    -2.6121098317e-03    -2.7054555188e-03 0 0 0 0
33 1     2.6795662597e+01     8.0710390582e+00    -7.5055931717e-05     0.0000000000e+00     1.4070967812e-04    -3.7834394259e-06     2.6795662597e+01     8.0710390582e+00    -4.4610481730e-04    -2.2388588978e-03    -1.1339968767e-03 0 0 0 0
34 1     2.4755609402e+01     1.1281675169e+01     0.0000000000e+00     0.0000000000e+00     4.0836791583e-12    -3.4078281511e-12     2.4755609402e+01     1.1281675169e+01     1.0148210520e-04    -2.1402344147e-04    -1.7659038851e-04 4 0 0 0
35 1     2.0733277384e+01     1.6589875969e+01     0.0000000000e+00     0.0000000000e+00     8.9041032441e-13    -3.2066553866e-12     2.0733277384e+01     1.6589875969e+01     5.2516744215e-04    -1.3143582821e-03    -5.1995772091e-04 4 0 0 0
36 1     3.6129927551e+01     3.2045834416e+00    -7.5055931717e-05     0.0000000000e+00    -1.2149403684e-10     9.9233069814e-11     3.6129927551e+01     3.2045834416e+00    -2.3054928248e-04    -1.4088771631e-03    -1.4021349259e-03 0 0 0 0
37 1     3.2913329936e+01     2.1464265024e+01     0.0000000000e+00     0.0000000000e+00    -1.7786184038e-12     3.0214101620e-12     3.2913329936e+01     2.1464265024e+01    -1.4050522246e-04    -5.5438146451e-04    -1.3371288003e-03 4 0 0 0
38 1     8.2295832394e-01     2.0010515174e+01     0.0000000000e+00     0.0000000000e+00     3.0842852821e-12    -4.7378835999e-13     8.2295832394e-01     2.0010515174e+01     7.2885776047e-06    -8.0758718184e-04    -2.0018684263e-03 5 0 0 0
39 1     1.1762146942e+01     2.8466680220e+00    -7.5055931717e-05     0.0000000000e+00     6.1347233500e-11     2.7040987071e-11     1.1762146942e+01     2.8466680220e+00     1.4263374764e-03    -2.9022405454e-03    -2.4400243794e-03 0 0 0 0
40 1     1.5052205300e-01     1.6534992722e+00    -7.5055931717e-05     0.0000000000e+00    -1.0562840352e-05    -2.8893478290e-05     1.5052205300e-01     1.6534992722e+00    -9.9200742175e-06    -3.6265678777e-06    -2.7135262816e-05 0 0 0 0
41 1     4.6343652863e+00     1.1979052493e+01     0.0000000000e+00     0.0000000000e+00     3.5960912525e-12    -2.9758805825e-12     4.6343652863e+00     1.1979052493e+01     4.4237311637e-04    -1.2319790694e-03    -1.0153946318e-03 4 0 0 0
42 1     2.7446964221e+01     1.3976371366e+01     0.0000000000e+00     0.0000000000e+00    -1.0899588456e-13     2.6195923685e-14     2.7446964221e+01     1.3976371366e+01     1.5357096057e-05    -5.8876700399e-05    -4.3729232552e-04 3 0 0 0
43 1     2.5068727434e+00     1.8932921353e+01     0.0000000000e+00     0.0000000000e+00     2.4087936507e-12     4.5050790626e-12     2.5068727434e+00     1.8932921353e+01    -1.0318149371e-03    -2.7879683745e-03    -1.5362538488e-03 5 0 0 0
44 1     1.2784081501e+01     1.7752250197e+01     0.0000000000e+00     0.0000000000e+00     6.3143059032e-13    -2.4609905043e-12     1.2784081501e+01     1.7752250197e+01     6.3135852015e-04    -2.8281699319e-03    -2.2265947426e-03 5 0 0 0
45 1     3.3646365054e+01     5.6399210525e+00    -7.5055931717e-05     0.0000000000e+00    -3.3998329824e-10    -1.5455694558e-10     3.3646365054e+01     5.6399210525e+00     5.7093130970e-04    -1.2835747078e-03    -4.5768022215e-04 0 0 0 0
46 1     3.7319706662e+01     2.1498810440e+01     0.0000000000e+00     0.0000000000e+00    -1.1719768358e-12     1.6576816959e-13     3.7319706662e+01     2.1498810440e+01    -2.2787229571e-04    -3.4755994233e-04    -7.5635338386e-04 3 0 0 0
47 1     3.4694179263e+01     1.8180307693e+00    -7.5055931717e-05     0.0000000000e+00    -7.1508658330e-05    -3.1554118331e-04     3.4694179263e+01     1.8180307693e+00    -2.9376692654e-04    -2.2603210908e-03    -9.4828540276e-04 0 0 0 0
48 1     1.5392174542e+01     5.2640411827e+00    -7.5055931717e-05     0.0000000000e+00     6.1733187464e-11    -9.0830434320e-11     1.5392174542e+01     5.2640411827e+00    -7.3666717326e-04    -9.3563931137e-04    -2.6127715101e-03 0 0 0 0
49 1     2.0619473150e+01     6.7466262223e+00    -7.5055931717e-05     0.0000000000e+00    -7.5980536099e-11     9.0120207981e-12     2.0619473150e+01     6.7466262223e+00    -3.4824001064e-05    -1.5385072181e-04    -7.4755405789e-05 0 0 0 0
50 1     3.0413403159e+01     1.0952566988e+01     0.0000000000e+00     0.0000000000e+00    -1.0758547102e-12    -1.6027045142e-12     3.0413403159e+01     1.0952566988e+01     1.4350226413e-04    -3.0975998201e-04    -1.3646730929e-03 4 0 0 0
51 1     3.3914446654e+01     3.6587849769e+00    -7.5055931717e-05     0.0000000000e+00    -3.1557856636e-11    -1.0482762447e-10     3.3914446654e+01     3.6587849769e+00     1.1780578933e-04    -9.9223655605e-05    -3.9263820292e-04 0 0 0 0
52 1     1.7316033685e+01     5.8043953249e+00    -7.5055931717e-05     0.0000000000e+00     6.6602042945e-11    -7.9039292337e-11     1.7316033685e+01     5.8043953249e+00    -1.7100616926e-04    -7.4006099521e-04    -1.7723784347e-04 0 0 0 0
53 1     1.8686584432e+01     7.2596163959e+00    -7.5055931717e-05     0.0000000000e+00     2.1451955805e-05     3.3910495575e-05     1.8686584432e+01     7.2596163959e+00    -2.1095105554e-04    -2.2461377024e-04    -2.9235885694e-04 0 0 0 0
54 1     1.9308142062e+01     3.2862837179e+00    -7.5055931717e-05     0.0000000000e+00     1.6304057063e-11    -1.0236911796e-10     1.9308142062e+01     3.2862837179e+00    -6.9415131962e-04    -1.6970226579e-03    -9.7655661231e-04 0 0 0 0
55 1     3.6615128688e+01     1.3303655190e+01     0.0000000000e+00     0.0000000000e+00     3.1695175998e-13    -3.3000403625e-15     3.6615128688e+01     1.3303655190e+01     6.4762971117e-04    -1.2496453175e-03    -6.7003170736e-04 3 0 0 0
56 1     9.7336794781e+00     1.4310488694e+01     0.0000000000e+00     0.0000000000e+00     3.4770067684e-12     2.8373191383e-13     9.7336794781e+00     1.4310488694e+01    -3.6633285729e-04    -1.3354525171e-03    -2.1669269508e-03 5 0 0 0
57 1     1.5737851413e+01     1.2013399919e+01     0.0000000000e+00     0.0000000000e+00     3.6112912587e-13    -3.4513624800e-12     1.5737851413e+01     1.2013399919e+01     6.6087472688e-04    -9.4449187758e-04    -1.1403945555e-03 4 0 0 0
58 1     4.4708034973e+00     1.9281278751e+01     0.0000000000e+00     0.0000000000e+00     7.0588695479e-13    -9.4086777215e-13     4.4708034973e+00     1.9281278751e+01    -4.7867434494e-04    -2.5813883968e-03    -2.0102931077e-04 3 0 0 0
59 1     1.7074394299e+01     1.3500990512e+01     0.0000000000e+00     0.0000000000e+00     3.2667892371e-13     3.4983924395e-13     1.7074394299e+01     1.3500990512e+01     1.9718852728e-04    -1.0080970593e-04    -6.5350591764e-04 3 0 0 0
60 1     3.2917508627e+01     1.0478952822e+01     0.0000000000e+00     0.0000000000e+00    -1.1092225229e-12    -1.7737018451e-12     3.2917508627e+01     1.0478952822e+01    -1.0874017633e-03    -1.3942822203e-03    -2.3886147719e-03 4 0 0 0
61 1     8.1250909288e+00     1.8767455839e+01     0.0000000000e+00     0.0000000000e+00     1.2938994494e-12    -7.8753691936e-13     8.1250909288e+00     1.8767455839e+01     8.7061562965e-04    -2.2665001135e-03    -9.9760281959e-04 3 0 0 0
62 1     1.4960590725e+01     2.0113717698e+01     0.0000000000e+00     0.0000000000e+00    -1.3460284862e-12    -5.7670078565e-12     1.4960590725e+01     2.0113717698e+01    -7.3677130465e-05    -1.6302553678e-03    -1.1200883718e-03 3 0 0 0
63 1     2.1004766856e+01     4.3371119809e+00    -7.5055931717e-05     0.0000000000e+00     4.0284962432e-11    -1.2650938934e-10     2.1004766856e+01     4.3371119809e+00    -8.1495413021e-04    -1.9717353333e-03    -9.0617362525e-04 0 0 0 0
64 1     3.9599654107e+00     1.0097885027e+01     0.0000000000e+00     0.0000000000e+00    -4.5118793812e-05     9.1504201376e-06     3.9599654107e+00     1.0097885027e+01     8.0375079105e-04    -1.1500573235e-03    -1.3929637787e-03 2 0 2 0
65 1     1.5919070620e+01     1.0023677728e+01     0.0000000000e+00     0.0000000000e+00    -1.4783625823e-06    -1.0429490655e-05     1.5919070620e+01     1.0023677728e+01     3.2824287604e-05    -1.0554193880e-04    -1.0518647917e-03 2 0 1 0
66 1     2.7988545830e+01     6.4667435399e+00    -7.5055931717e-05     0.0000000000e+00    -7.5001161043e-11    -3.3662871264e-11     2.7988545830e+01     6.4667435399e+00     2.2171973722e-04    -2.4277629830e-04    -2.6677796650e-04 0 0 0 0
67 1     3.5440146465e+01     1.7422628265e+01     0.0000000000e+00     0.0000000000e+00    -2.3274195071e-12     1.2486744494e-12     3.5440146465e+01     1.7422628265e+01     3.1540156544e-05    -3.4901199659e-03    -3.5499848272e-03 5 0 0 0
68 1     2.1448569758e+01     1.4723494047e+01     0.0000000000e+00     0.0000000000e+00    -1.9227635434e-12     2.5548253834e-12     2.1448569758e+01     1.4723494047e+01     1.6147655788e-04    -1.0139773790e-03    -9.8696116278e-04 5 0 0 0
69 1     3.9873113576e+00     6.4632951149e+00    -7.5055931717e-05     0.0000000000e+00    -9.8271226118e-11    -2.2717392840e-11     3.9873113576e+00     6.4632951149e+00     4.1110235664e-05    -3.7272699930e-04    -8.0987597698e-04 0 0 0 0
70 1     2.3105254974e+00     1.1223037325e+01     0.0000000000e+00     0.0000000000e+00    -2.4551324515e-14    -4.3880751897e-14     2.3105254974e+00     1.1223037325e+01     2.2430676598e-04    -1.3643024150e-03    -1.1262608678e-03 4 0 0 0
71 1     2.3573669769e+01     1.8077054578e+01     0.0000000000e+00     0.0000000000e+00     4.3278560938e-13     2.5842012991e-12     2.3573669769e+01     1.8077054578e+01    -8.5454947767e-05    -3.0418343341e-04    -8.6538095603e-04 3 0 0 0
72 1     1.7599442858e+01     8.9400337535e+00     0.0000000000e+00     0.0000000000e+00    -5.3263121161e-05    -3.4069826695e-05     1.7599442858e+01     8.9400337535e+00    -6.8881512737e-04    -1.9817408057e-03    -7.9935685048e-04 3 0 1 0
73 1     1.9248045940e+01     5.2912162940e+00    -7.5055931717e-05     0.0000000000e+00     5.2457963578e-11    -1.0995959711e-10     1.9248045940e+01     5.2912162940e+00     1.2618179524e-04    -4.3506243976e-04    -9.9937227980e-05 0 0 0 0
74 1     1.5010548052e+02     2.1826743143e+01     0.0000000000e+00     0.0000000000e+00     1.9365100344e-12    -2.6801475535e-12     1.5010548052e+02     2.1826743143e+01     4.6325025393e-04    -3.0907220005e-04    -1.8967903466e-03 3 0 0 0
75 1     8.7331273401e+00     5.4342474335e+00    -7.5055931717e-05     0.0000000000e+00    -2.7761908495e-11    -6.2182590484e-11     8.7331273401e+00     5.4342474335e+00     1.7665253722e-03    -2.0931571470e-03    -3.4615584465e-03 0 0 0 0
76 1     8.3718733559e-01     3.5317959967e+00    -7.5055931717e-05     0.0000000000e+00    -6.3792894984e-11     4.1660274433e-11     8.3718733559e-01     3.5317959967e+00    -7.6246919241e-05    -3.0957041081e-04    -4.4172640154e-05 0 0 0 0
77 1     1.6568882476e+01     1.8930693548e+01     0.0000000000e+00     0.0000000000e+00     3.2133911417e-12     7.2619255444e-12     1.6568882476e+01     1.8930693548e+01     2.9912054166e-04    -2.6673068758e-03    -1.1544810649e-03 4 0 0 0
78 1     1.2790531907e+01     2.8106765530e+01     0.0000000000e+00     0.0000000000e+00     4.2896082533e-12     1.4869594000e-12     1.2790531907e+01     2.8106765530e+01    -2.1373373162e-04    -1.0478188395e-03    -6.1724429750e-04 5 0 0 0
79 1     1.9178122188e+01     3.5834424414e+01     0.0000000000e+00     0.0000000000e+00    -5.8430896840e-12    -1.4781230710e-12     1.9178122188e+01     3.5834424414e+01    -6.0360450472e-05    -1.1826895276e-03    -1.3800776640e-03 4 0 0 0
80 1     3.6268365230e+01     2.3524120949e+01     0.0000000000e+00     0.0000000000e+00    -2.0780642832e-13    -1.0549998375e-12     3.6268365230e+01     2.3524120949e+01    -7.8057400156e-04    -1.8309981522e-03    -2.0467373687e-03 4 0 0 0
81 1     3.7133353920e+01     3.8445762091e+01     0.0000000000e+00     0.0000000000e+00     1.8021606614e-12    -1.1943437775e-12     3.7133353920e+01     3.8445762091e+01    -2.3321784203e-04    -1.2167133998e-03    -1.2683620866e-03 5 0 0 0
82 1     3.1123384536e+01     3.7043790157e+01     0.0000000000e+00     0.0000000000e+00     9.1669129698e-13    -4.9175241787e-13     3.1123384536e+01     3.7043790157e+01     1.7963795221e-05    -1.5042009923e-03    -1.8934539258e-04 3 0 0 0
83 1     1.8020833271e+01     3.7462265248e+01     0.0000000000e+00     0.0000000000e+00     3.4768325778e-12     3.0461759417e-12     1.8020833271e+01     3.7462265248e+01     3.1293135032e-04    -8.3612932863e-04    -1.2259940305e-03 5 0 0 0
84 1     2.0909055507e+01     3.4629793881e+01     0.0000000000e+00     0.0000000000e+00     1.0227820517e-12     5.6759474508e-13     2.0909055507e+01     3.4629793881e+01    -3.3893405720e-06    -4.8546284864e-05    -6.1575015057e-04 3 0 0 0
85 1     1.3486657825e+01     2.1775647343e+01     0.0000000000e+00     0.0000000000e+00     0.0000000000e+00     0.0000000000e+00     1.3486657825e+01     2.1775647343e+01    -0.0000000000e+00    -0.0000000000e+00    -0.0000000000e+00 0 0 0 0
86 1     3.5337523727e+01     2.1759147142e+01     0.0000000000e+00     0.0000000000e+00     3.2395436160e-12     6.0558285817e-13     3.5337523727e+01     2.1759147142e+01    -8.6092988582e-04    -8.4486947575e-04    -2.4994612900e-03 4 0 0 0
87 1     1.1364739014e+01     3.7367182540e+01     0.0000000000e+00     0.0000000000e+00     3.7515806705e-12    -1.2421398003e-13     1.1364739014e+01     3.7367182540e+01    -1.8012609748e-04    -3.9512826029e-04    -2.5952980009e-04 4 0 0 0
88 1     1.3698899414e+01     3.1786617747e+01     0.0000000000e+00     0.0000000000e+00     7.8635636414e-12     4.5427921949e-14     1.3698899414e+01     3.1786617747e+01     1.7777280481e-04    -1.1560297831e-03    -1.3265386983e-04 3 0 0 0
89 1     3.8736470023e+00     3.1803113168e+01     0.0000000000e+00     0.0000000000e+00     7.5322280964e-12    -3.0012786418e-12     3.8736470023e+00     3.1803113168e+01     1.5523310408e-04    -1.9096674750e-03    -2.9208612144e-03 4 0 0 0
90 1     1.2137195821e+01     2.6217328547e+01     0.0000000000e+00     0.0000000000e+00     5.4317505490e-12     3.4686877394e-13     1.2137195821e+01     2.6217328547e+01     2.6252256681e-04    -8.9060253921e-04    -7.8146333740e-04 5 0 0 0
91 1     1.3140026202e+01     3.3834028812e+01     0.0000000000e+00     0.0000000000e+00    -3.1349752303e-12    -1.7310014099e-13     1.3140026202e+01     3.3834028812e+01    -2.2519886788e-04    -4.5407891163e-04    -4.6921202877e-04 3 0 0 0
92 1     1.7246014717e+01     3.3024592334e+01     0.0000000000e+00     0.0000000000e+00    -2.1501669802e-12    -3.3358130711e-12     1.7246014717e+01     3.3024592334e+01     1.4625090270e-04    -6.7607840042e-04    -1.0760439779e-03 4 0 0 0
93 1     2.3041908732e+01     2.2839342084e+01     0.0000000000e+00     0.0000000000e+00    -5.3851353986e-12    -8.4348029863e-12     2.3041908732e+01     2.2839342084e+01     9.1072713819e-04    -2.6063419112e-03    -1.8835632665e-03 5 0 0 0
94 1     1.4595062458e+01     4.3159356443e+01     0.0000000000e+00     0.0000000000e+00     5.7504920422e-13     2.7287992829e-12     1.4595062458e+01     4.3159356443e+01    -5.4473958490e-04    -6.4951588341e-04    -1.2667344031e-03 3 0 0 0
95 1     1.4569715281e+01     2.7196017816e+01     0.0000000000e+00     0.0000000000e+00     9.3073863271e-12    -3.0486619089e-12     1.4569715281e+01     2.7196017816e+01    -1.1552496881e-04    -7.4531420321e-04    -5.2942098527e-04 4 0 0 0
96 1     8.8289626835e+00     2.7724251184e+01     0.0000000000e+00     0.0000000000e+00    -1.8255874785e-12     5.3338425256e-12     8.8289626835e+00     2.7724251184e+01    -5.2203290675e-05    -8.1519139288e-04    -1.4017586484e-03 5 0 0 0
97 1     3.8018814824e+01     3.2344928955e+01     0.0000000000e+00     0.0000000000e+00     2.2352790192e-12    -3.9423698410e-13     3.8018814824e+01     3.2344928955e+01     5.9054163963e-04    -1.3918165443e-03    -1.7087123069e-03 5 0 0 0
98 1     2.6969734910e+01     2.4202512731e+01     0.0000000000e+00     0.0000000000e+00     1.4498385131e-13     1.9166920655e-12     2.6969734910e+01     2.4202512731e+01    -6.7480170744e-04    -9.3346022110e-04    -1.2141413800e-03 4 0 0 0
99 1     5.7137436315e+00     3.9731243285e+01     0.0000000000e+00     0.0000000000e+00    -7.2523308160e-12     5.0009126614e-12     5.7137436315e+00     3.9731243285e+01    -7.7328147203e-05    -2.3826036245e-03    -2.6645567486e-03 5 0 0 0
100 1     1.6982875747e+01     3.0233132270e+01     0.0000000000e+00     0.0000000000e+00     3.3534817718e-13    -4.8116626785e-13     1.6982875747e+01     3.0233132270e+01    -3.1238139960e-04    -1.2255069242e-03    -1.2435342658e-03 4 0 0 0
101 1     2.7245464856e+00     2.5274552720e+01     0.0000000000e+00     0.0000000000e+00    -4.0468745976e-12    -9.9221038287e-13     2.7245464856e+00     2.5274552720e+01     9.1454827226e-04    -1.0893925431e-03    -1.9639696555e-03 4 0 0 0
102 1     2.7882251369e+00     3.8596525750e+01     0.0000000000e+00     0.0000000000e+00    -3.1571673444e-12    -3.8227044143e-13     2.7882251369e+00     3.8596525750e+01     4.3277651633e-04    -6.3326584517e-04    -7.0849328913e-04 4 0 0 0
103 1     1.8392947233e+01     4.4535272812e+01     0.0000000000e+00     0.0000000000e+00    -1.3174358692e-12     2.0510088222e-12     1.8392947233e+01     4.4535272812e+01     6.1278131563e-06    -1.7865046421e-05    -4.6594533637e-06 3 0 0 0
104 1     3.1582852875e+01     2.2956094327e+01     0.0000000000e+00     0.0000000000e+00     3.9272595863e-13    -6.8205553510e-12     3.1582852875e+01     2.2956094327e+01    -1.4306614906e-04    -9.9752377648e-04    -9.1530070879e-04 5 0 0 0
105 1     2.8389572275e+01     3.4213387663e+01     0.0000000000e+00     0.0000000000e+00     1.0527676278e-13     1.2036185850e-12     2.8389572275e+01     3.4213387663e+01    -4.1872687376e-06    -1.0857009552e-03    -2.6494220469e-03 5 0 0 0
106 1     1.7111743369e+00     2.3423484158e+01     0.0000000000e+00     0.0000000000e+00    -3.7163188380e-12    -8.5904678824e-13     1.7111743369e+00     2.3423484158e+01     8.3080991834e-05    -3.2554072249e-04    -8.0154246100e-05 3 0 0 0
107 1     2.1154842582e+01     2.6920606566e+01     0.0000000000e+00     0.0000000000e+00     3.0628413217e-12     5.8160275641e-12     2.1154842582e+01     2.6920606566e+01    -1.2646364691e-04    -1.0917865505e-03    -1.5999081899e-03 5 0 0 0
108 1     2.3003818621e+01     3.1721162553e+01     0.0000000000e+00     0.0000000000e+00     5.1104688650e-12     6.9719722346e-15     2.3003818621e+01     3.1721162553e+01    -9.1127769413e-06    -1.9564304929e-04    -1.2578228614e-04 3 0 0 0
109 1     3.2207068056e+01     2.7685543451e+01     0.0000000000e+00     0.0000000000e+00     9.4793552348e-12     8.1255415265e-13     3.2207068056e+01     2.7685543451e+01     3.1891777841e-04    -1.1963086933e-03    -1.1350140122e-03 5 0 0 0
110 1     3.0246217084e+01     2.7298666021e+01     0.0000000000e+00     0.0000000000e+00    -5.9034863857e-12    -2.1792972158e-12     3.0246217084e+01     2.7298666021e+01    -3.2440819589e-04    -1.2585151007e-03    -1.0740247771e-03 4 0 0 0
111 1     5.6435263883e+00     3.0880390849e+01     0.0000000000e+00     0.0000000000e+00    -1.4505736022e-13     3.2263771732e-12     5.6435263883e+00     3.0880390849e+01     6.4427416212e-04    -1.5770180563e-03    -7.2261899966e-04 3 0 0 0
112 1     2.7625520050e+01     3.0427470108e+01     0.0000000000e+00     0.0000000000e+00     0.0000000000e+00     0.0000000000e+00     2.7625520050e+01     3.0427470108e+01    -0.0000000000e+00    -0.0000000000e+00    -0.0000000000e+00 0 0 0 0
113 1     7.3291125472e+00     2.6403182592e+01     0.0000000000e+00     0.0000000000e+00    -4.0077372573e-12    -5.6207113074e-12     7.3291125472e+00     2.6403182592e+01    -8.5146330391e-05    -4.1742968010e-04    -1.1466968647e-03 4 0 0 0
114 1     5.5904766558e+00     3.6225502181e+01     0.0000000000e+00     0.0000000000e+00     3.1659362089e-12    -6.4551160641e-12     5.5904766558e+00     3.6225502181e+01    -1.5609052620e-04    -6.1570449230e-04    -1.7668283528e-03 4 0 0 0
115 1     1.3000403063e+01     1.9737056278e+01     0.0000000000e+00     0.0000000000e+00     6.8794894911e-12    -4.7864855525e-12     1.3000403063e+01     1.9737056278e+01     3.6116930467e-04    -1.7955286681e-03    -1.3688390095e-03 3 0 0 0
116 1     2.1011527939e+01     3.6625902106e+01     0.0000000000e+00     0.0000000000e+00    -1.1072116531e-12     3.8149657045e-12     2.1011527939e+01     3.6625902106e+01    -4.2940321682e-04    -1.4891888826e-03    -1.1775211371e-03 5 0 0 0
117 1     7.6408001303e+00     3.0879116835e+01     0.0000000000e+00     0.0000000000e+00    -4.3339337788e-12    -7.0429026109e-12     7.6408001303e+00     3.0879116835e+01     4.6809443367e-04    -1.6597473433e-03    -7.8909348550e-04 4 0 0 0
118 1     2.1313528597e+01     3.0652907616e+01     0.0000000000e+00     0.0000000000e+00    -2.3476089101e-12     1.6489292774e-12     2.1313528597e+01     3.0652907616e+01     2.1188148813e-04    -3.7220041739e-04    -8.2621882032e-04 4 0 0 0
119 1     2.1124774877e+01     3.2642654299e+01     0.0000000000e+00     0.0000000000e+00     6.4743052702e-12     3.5772289536e-12     2.1124774877e+01     3.2642654299e+01    -6.0739794444e-04    -1.1189114187e-03    -1.0243814010e-03 4 0 0 0
120 1     2.6424048205e+01     3.4573730551e+01     0.0000000000e+00     0.0000000000e+00     2.7849664306e-12    -3.9549576044e-12     2.6424048205e+01     3.4573730551e+01     2.4171322397e-05    -7.7344581570e-04    -9.4702338296e-04 4 0 0 0
121 1     2.4789282781e+01     3.3424834115e+01     0.0000000000e+00     0.0000000000e+00    -8.7473442118e-13     5.6287476579e-12     2.4789282781e+01     3.3424834115e+01    -6.6372117913e-05    -7.9644919540e-04    -5.6366045663e-04 3 0 0 0