ITEM: TIMESTEP
1000
ITEM: NUMBER OF ATOMS
4556
ITEM: BOX BOUNDS pp ff pp
0.0000000000000000e+00 1.5011186343322501e+02
0.0000000000000000e+00 1.6691186343322499e+02
-1.0000000000000000e-02 1.0000000000000000e-02
ITEM: ATOMS id type x y vx vy fx fy xu yu c_shearStr[4] c_shearStr[1] c_shearStr[2] v_coordA v_coordB v_coordA_wall v_coordB_wall
1 1     3.8648109295e+01     3.2112242274e+00    -7.5055931717e-05     0.0000000000e+00     3.4586453725e-11     5.7813394608e-11     3.8648109295e+01     3.2112242274e+00     1.3519282798e-05    -1.2264112750e-05    -2.5524784962e-05 0 0 0 0
2 1     3.7908849972e+01     1.3528864139e+00    -7.5055931717e-05     0.0000000000e+00     2.6097361752e-05    -4.9940246666e-05     3.7908849972e+01     1.3528864139e+00    -5.7883085646e-06    -5.3316321409e-04    -1.3450328920e-04 0 0 0 0
3 1     1.6099938781e+01     4.3742392364e+00    -7.5055931717e-05     0.0000000000e+00     2.1905847264e-10     1.3449288341e-11     1.6099938781e+01     4.3742392364e+00    -7.4905184602e-04    -6.3932479980e-04    -2.9394948559e-03 0 0 0 0
4 1     3.1277903054e+01     1.4773189937e+01    -1.9223512350e-05     4.1434328915e-06    -3.5459548707e-06     1.5631186128e-06     3.1277903054e+01     1.4773189937e+01    -7.8403383334e-04    -2.3336231352e-03    -8.6273135975e-04 4 0 0 0
5 1     2.3806862291e+01     1.9513121909e+01    -2.5159650861e-06    -1.2565169436e-06    -6.9648544369e-07    -1.0082193556e-07     2.3806862291e+01     1.9513121909e+01    -6.8159928461e-04    -7.7341363757e-04    -1.3159509983e-03 4 0 0 0
6 1     1.9351526720e+01     6.9198837191e+00    -7.5055931717e-05     0.0000000000e+00    -1.3541791307e-06     5.7711817453e-06     1.9351526720e+01     6.9198837191e+00     2.7611949701e-04    -4.6465656386e-04    -8.8604772101e-04 0 0 0 0
7 1     1.2481723471e+01     1.8753852498e+01    -2.0889268858e-06    -3.0101691697e-06    -2.2167557837e-07     3.0393306467e-07     1.2481723471e+01     1.8753852498e+01    -4.6105912364e-04    -2.7199084091e-03    -1.4392197628e-03 5 0 0 0
8 1     3.1418977948e+01     1.6481722641e+02     7.5055931717e-05     0.0000000000e+00    -1.0622411262e-10     2.1238088631e-10     3.1418977948e+01     1.6481722641e+02    -6.6402769573e-04    -1.2472897863e-03    -1.0873764212e-03 0 0 0 0
9 1     3.0735063472e+01     5.2090817653e+00    -7.5055931717e-05     0.0000000000e+00     1.0322940658e-10    -1.1394439082e-10     3.0735063472e+01     5.2090817653e+00    -7.0902302885e-05    -1.6573630707e-03    -1.1841093292e-03 0 0 0 0
10 1     1.1012306390e+01     2.2163944279e+01    -9.3788108142e-07    -3.1719135860e-06    -2.0841053527e-07    -4.2905918175e-07     1.1012306390e+01     2.2163944279e+01    -7.4673850980e-04    -2.4679310451e-03    -2.0123758599e-03 4 0 0 0
11 1     3.7620085368e+01     1.2481960849e+01    -3.3601502569e-05    -1.7754129956e-06    -4.7368461983e-06     2.3573520243e-06     3.7620085368e+01     1.2481960849e+01    -4.1499134087e-04    -1.4676543055e-03    -9.9301656158e-04 4 0 0 0
12 1     1.5203183421e+01     1.6627722653e+01    -1.3619558755e-05     2.9595547238e-06    -2.0080850294e-06     2.5457719703e-07     1.5203183421e+01     1.6627722653e+01     3.0929439003e-04    -5.1771610708e-04    -1.1155169276e-03 4 0 0 0
13 1     3.6013233496e+01     8.9647322266e+00    -8.0041380635e-05     3.4499966568e-06    -1.4355537263e-06     1.1907286572e-06     3.6013233496e+01     8.9647322266e+00    -2.3226307411e-04    -5.8363152215e-04    -7.3151806153e-04 3 0 1 0
14 1     2.2984449008e+01     1.7693743454e+01    -1.5157784851e-06    -1.8050223827e-06    -9.1940723062e-07     5.0258892683e-08     2.2984449008e+01     1.7693743454e+01    -1.3871733862e-04    -1.1585773073e-03    -1.6184400474e-03 4 0 0 0
15 1     1.4833146583e+01     2.8319759939e+00    -7.5055931717e-05     0.0000000000e+00     6.9069108614e-11     1.4804857611e-10     1.4833146583e+01     2.8319759939e+00    -6.2838363198e-04    -2.4800465163e-03    -1.5099491272e-03 0 0 0 0
16 1     1.0253680848e+00     4.9192654574e+00    -7.5055931717e-05     0.0000000000e+00     4.0821354787e-11     2.6242998814e-10     1.0253680848e+00     4.9192654574e+00    -1.7274196182e-04    -3.5912479569e-04    -4.6945579455e-04 0 0 0 0
17 1     2.5186368368e+00     1.1244647257e+01    -3.0483913030e-05     1.5151145723e-05    -3.5718067361e-06    -3.6132837501e-07     2.5186368368e+00     1.1244647257e+01    -1.2744152944e-04    -9.2250467625e-04    -1.2848866058e-03 4 0 0 0
18 1     8.0097791250e+00     1.5736437963e+01     3.2907214884e-06    -2.1302615356e-06    -2.5471015430e-07    -7.4733490892e-07     8.0097791250e+00     1.5736437963e+01    -1.2848162849e-05    -1.8936279342e-04    -1.6648772386e-04 3 0 0 0
19 1     4.6121292370e+00     4.3223698403e+00    -7.5055931717e-05     0.0000000000e+00    -1.4113833745e-11     1.7245637161e-10     4.6121292370e+00     4.3223698403e+00     3.6123978633e-04    -1.1747231394e-03    -1.0873236341e-03 0 0 0 0
20 1     3.0841097560e+01     1.2822539842e+01    -8.9117382760e-06     3.1331969973e-06    -1.6636389808e-06     1.0633445390e-06     3.0841097560e+01     1.2822539842e+01     5.3408909385e-04    -5.4941809779e-04    -1.0092732017e-03 3 0 0 0
21 1     2.5944959731e+01     1.6484414677e+02     7.5055931717e-05     0.0000000000e+00    -9.8739875735e-11     1.5511139097e-10     2.5944959731e+01     1.6484414677e+02     8.3295093640e-11    -5.3023489403e-11    -1.3084903884e-10 0 0 0 0
22 1     3.4386927871e+01     4.5956165588e+00    -7.5055931717e-05     0.0000000000e+00     7.4207819204e-11     8.6771861885e-11     3.4386927871e+01     4.5956165588e+00     5.1186546767e-04    -1.0231557455e-03    -8.7467147044e-04 0 0 0 0
23 1     3.6356213529e+01     1.0933548273e+01    -3.8010892837e-05    -3.9590216024e-06    -3.4230672996e-06     1.5683240864e-06     3.6356213529e+01     1.0933548273e+01    -1.3160659255e-05    -1.1381171046e-03    -6.9730695374e-04 5 0 0 0
24 1     2.1015553239e+01     1.8030968004e+01     7.0344387397e-07     1.7378639477e-06    -6.0608972905e-07     4.3515846466e-07     2.1015553239e+01     1.8030968004e+01     6.7536799845e-05    -1.1320968877e-03    -5.9613559626e-04 4 0 0 0
25 1     1.1445763444e+01     7.2423694996e-01    -7.5055931717e-05     0.0000000000e+00     4.0920698298e-04    -7.3620822643e-04     1.1445763444e+01     7.2423694996e-01    -6.8215748292e-04    -2.3351115324e-03    -6.4276675663e-04 0 0 0 0
26 1     1.8212286025e+01     8.5612276089e+00    -7.7674589581e-05     1.2389470884e-06     6.5211363163e-07    -6.3008289658e-07     1.8212286025e+01     8.5612276089e+00    -1.6367468880e-03    -1.3716230252e-03    -3.4539124009e-03 1 0 2 0
27 1     3.7698469650e+01     4.9713156843e+00    -7.5055931717e-05     0.0000000000e+00     6.7621548660e-11     7.7566703061e-11     3.7698469650e+01     4.9713156843e+00    -1.1616815917e-03    -1.1553665008e-03    -1.5891106163e-03 0 0 0 0
28 1     6.3383068306e+00     1.9685954407e+01     1.8234304259e-06     1.7969840327e-06     1.8578311737e-07    -3.1671630526e-07     6.3383068306e+00     1.9685954407e+01     7.2178442215e-05    -1.4020517053e-03    -1.0865708303e-03 5 0 0 0
29 1     3.8328586950e+01     1.0613534193e+01    -4.4676169580e-05    -2.9576892836e-06    -2.4104343013e-06     2.5657567705e-06     3.8328586950e+01     1.0613534193e+01     6.3551550018e-04    -1.1304457478e-03    -7.4679209364e-04 4 0 0 0
30 1     3.4384862891e+01     1.1257656398e+01    -3.5672550557e-05    -5.1061372538e-06    -4.2037645915e-06     9.8083913143e-07     3.4384862891e+01     1.1257656398e+01    -4.4639247804e-04    -1.8569197303e-03    -1.3023730168e-03 5 0 0 0
31 1     2.3551280568e+00     1.9787521747e+01     2.8492829596e-06     1.4446962551e-06     5.1314561505e-07     9.6512695199e-08     2.3551280568e+00     1.9787521747e+01     4.4346510825e-04    -9.5816173679e-04    -9.4602059778e-04 5 0 0 0
32 1     1.0927758676e+01     2.6547535874e+00    -7.5055931717e-05     0.0000000000e+00     3.3941905954e-12     2.2678694906e-10     1.0927758676e+01     2.6547535874e+00     1.7914031328e-05    -4.1528240076e-04    -5.5644750983e-04 0 0 0 0
33 1     6.2198772342e+00     1.4845198791e+01    -2.1203965897e-05     4.5257364521e-05    -2.9974388387e-06     4.5096076441e-06     6.2198772342e+00     1.4845198791e+01     2.1290028615e-05    -2.3811657078e-04    -1.4155851590e-04 3 0 0 0
34 1     3.0497996702e+01     3.2255158457e+00    -7.5055931717e-05     0.0000000000e+00    -4.9289389071e-11    -6.7209510201e-11     3.0497996702e+01     3.2255158457e+00     6.5636280333e-04    -1.2566277592e-03    -1.4201083335e-03 0 0 0 0
35 1     2.2262687811e+01     1.6581595320e+02     7.5055931717e-05     0.0000000000e+00    -1.6568355077e-05     3.4031997702e-04     2.2262687811e+01     1.6581595320e+02    -3.3670644299e-05    -3.9192663782e-04    -2.2863354683e-04 0 0 0 0
36 1     1.8782190120e+01     2.2377843337e+00    -7.5055931717e-05     0.0000000000e+00    -1.0373102984e-11     9.2899387185e-12     1.8782190120e+01     2.2377843337e+00    -2.9641839555e-04    -2.2459203534e-03    -2.3012649839e-03 0 0 0 0
37 1     2.7086707139e+01     6.4414873967e+00    -7.5055931717e-05     0.0000000000e+00     4.6895941991e-11     6.5692988267e-11     2.7086707139e+01     6.4414873967e+00     1.6827044915e-04    -3.0681971997e-03    -2.1635512942e-03 0 0 0 0
38 1     1.3785691765e+01     1.2899387397e+01     1.7248427229e-06    -3.3025620857e-06    -2.0281176463e-07    -2.8505514565e-07     1.3785691765e+01     1.2899387397e+01     3.5646471962e-05    -1.9444576112e-04    -1.1025339557e-03 3 0 0 0
39 1     3.4040340555e+01     9.2898598669e+00    -7.9120843933e-05     1.7174269569e-06    -9.7359405213e-07     3.5381988381e-07     3.4040340555e+01     9.2898598669e+00    -1.7944368132e-04    -4.7658056471e-04    -1.0740159708e-03 2 0 2 0
40 1     2.9559284835e+00     5.4399711013e+00    -7.5055931717e-05     0.0000000000e+00     3.3445866953e-11     1.9280313077e-10     2.9559284835e+00     5.4399711013e+00     3.4969338984e-04    -1.4964299052e-03    -2.0521201352e-03 0 0 0 0
41 1     3.7066965569e+01     6.8680912685e+00    -7.5055931717e-05     0.0000000000e+00     5.1119654318e-06     9.9410443769e-06     3.7066965569e+01     6.8680912685e+00     5.5385424267e-05    -1.3059389169e-03    -3.9131712498e-04 0 0 0 0
42 1     9.3088597026e+00     1.2958870148e+01    -4.0258861578e-05     7.3577686127e-07    -3.3661749849e-06     2.5662031911e-06     9.3088597026e+00     1.2958870148e+01    -1.2555057261e-04    -1.6496333967e-03    -1.3350972179e-03 4 0 0 0
43 1     1.3222124567e+01     1.6896975868e+01    -1.3631852786e-05    -6.6131748557e-06    -2.1081848147e-06    -4.4411816329e-07     1.3222124567e+01     1.6896975868e+01     7.9852104291e-06    -2.5790907317e-04    -4.2487781106e-04 3 0 0 0
44 1     2.0840407568e+01     5.5868714427e+00    -7.5055931717e-05     0.0000000000e+00    -2.3369661891e-11    -1.9355065212e-10     2.0840407568e+01     5.5868714427e+00     2.8912095390e-04    -8.3650936028e-04    -2.8214857216e-04 0 0 0 0
45 1     3.7155621770e+01     1.4520675801e+01     0.0000000000e+00     0.0000000000e+00     0.0000000000e+00     0.0000000000e+00     3.7155621770e+01     1.4520675801e+01    -0.0000000000e+00    -0.0000000000e+00    -0.0000000000e+00 0 0 0 0
46 1     2.0607521752e+01     1.3925462214e+01    -3.4373487806e-05    -4.3446034893e-06    -2.5828305245e-06     1.0242771885e-07     2.0607521752e+01     1.3925462214e+01    -4.0791640889e-04    -1.7847352604e-03    -2.6589415842e-03 4 0 0 0
47 1     1.6803089291e+01     2.5049633891e+00    -7.5055931717e-05     0.0000000000e+00     1.6692862587e-11    -5.1834893365e-11     1.6803089291e+01     2.5049633891e+00     7.2037811031e-04    -1.6715200695e-03    -1.2988783602e-03 0 0 0 0
48 1     4.6142326398e+00     1.8366497930e+00    -7.5055931717e-05     0.0000000000e+00     1.1425503935e-11     2.6317878177e-10     4.6142326398e+00     1.8366497930e+00    -2.3038916649e-05    -1.5177221807e-03    -7.2388083081e-04 0 0 0 0
49 1     3.7986018830e+01     8.6433293876e+00    -7.8619301859e-05     3.1750284433e-06    -2.0334558231e-06     1.9008645026e-06     3.7986018830e+01     8.6433293876e+00    -1.8306394344e-04    -8.0624981883e-04    -2.8724811084e-04 3 0 1 0
50 1     3.0009907108e+01     9.4821188068e+00    -2.9524209504e-05    -1.1325203027e-05    -3.8485687965e-06     5.4584694142e-07     3.0009907108e+01     9.4821188068e+00    -2.5950068281e-04    -7.2763220814e-04    -1.4354277031e-03 2 0 1 0
51 1     1.4618131837e+01     1.4716322552e+01    -6.4346780489e-06     6.0066281552e-07    -8.7126948892e-07    -4.8650813524e-08     1.4618131837e+01     1.4716322552e+01    -2.9926295684e-04    -1.3212741269e-03    -5.5410669984e-04 4 0 0 0
52 1     4.3427405928e+00     1.9584033953e+01     2.3837126893e-06     4.9813383537e-06     3.9859407710e-07     4.4703485775e-07     4.3427405928e+00     1.9584033953e+01     6.8852685115e-05    -9.7371093849e-04    -8.5939247008e-05 3 0 0 0
53 1     3.5648792227e+01     1.2803722784e+01    -3.4044508300e-05    -6.4743701397e-06    -4.9187184396e-06     9.3380889413e-07     3.5648792227e+01     1.2803722784e+01    -2.6152951714e-05    -1.0082728051e-03    -1.3729648434e-03 4 0 0 0
54 1     1.9360174363e+01     1.9149659318e+01     2.3549642385e-06     2.7328933901e-06    -1.5007961796e-07     8.5833230172e-07     1.9360174363e+01     1.9149659318e+01    -4.4449256880e-04    -1.0660879481e-03    -1.2951659570e-03 3 0 0 0
55 1     1.5830194868e+01     1.2915647232e+01     0.0000000000e+00     0.0000000000e+00     0.0000000000e+00     0.0000000000e+00     1.5830194868e+01     1.2915647232e+01    -0.0000000000e+00    -0.0000000000e+00    -0.0000000000e+00 0 0 0 0
56 1     3.3920677697e+01     2.0011160616e+00    -7.5055931717e-05     0.0000000000e+00     0.0000000000e+00     0.0000000000e+00     3.3920677697e+01     2.0011160616e+00    -0.0000000000e+00    -0.0000000000e+00    -0.0000000000e+00 0 0 0 0
57 1     6.1765980400e+00     3.0817207393e+00    -7.5055931717e-05     0.0000000000e+00     3.3047228379e-11     2.3384351356e-10     6.1765980400e+00     3.0817207393e+00     3.5210996421e-04    -2.1032864789e-03    -6.0841752910e-04 0 0 0 0
58 1     1.1560266083e+01     6.8395147321e+00    -7.5055931717e-05     0.0000000000e+00     1.2596016815e-07    -3.1571999673e-06     1.1560266083e+01     6.8395147321e+00    -6.4500604057e-04    -1.7706042243e-03    -2.5878144611e-03 0 0 0 0
59 1     3.0145662524e+00     6.3987682713e-01    -7.5055931717e-05     0.0000000000e+00     6.2928183865e-04    -5.1127909904e-04     3.0145662524e+00     6.3987682713e-01    -4.9496424476e-05    -1.6151378467e-03    -2.3365401795e-04 0 0 0 0
60 1     9.4718499834e+00     4.3983764653e-01    -7.5055931717e-05     0.0000000000e+00    -8.5106355857e-04    -1.5094384915e-03     9.4718499834e+00     4.3983764653e-01     4.1511035386e-04    -1.6571507190e-03    -1.4643610805e-03 0 0 0 0
61 1     4.2888872824e+00     1.5363862839e+01    -3.0352332057e-05     1.7670741370e-05    -4.1832807874e-06     7.8844362154e-07     4.2888872824e+00     1.5363862839e+01    -5.3598353765e-04    -8.9689533538e-04    -1.3347073658e-03 4 0 0 0
62 1     2.3908946863e+01     1.6468224172e+02     7.5055931717e-05     0.0000000000e+00     1.4173284980e-04     4.2262860797e-04     2.3908946863e+01     1.6468224172e+02     1.7968772258e-04    -4.1223276046e-04    -6.2048606877e-04 0 0 0 0
63 1     2.8901659009e+01     2.0225530352e+00    -7.5055931717e-05     0.0000000000e+00    -3.6519804514e-11    -4.6982387897e-11     2.8901659009e+01     2.0225530352e+00     1.0615344054e-04    -7.5605936826e-04    -3.5808834668e-04 0 0 0 0
64 1     1.9039904134e+01     1.0372783362e+01    -6.5288444570e-05    -3.2923935248e-06    -2.2108494395e-06     1.7233869313e-07     1.9039904134e+01     1.0372783362e+01    -1.1434705462e-03    -2.0981250486e-03    -3.6517269144e-03 5 0 0 0
65 1     5.2782834802e+00     1.0835638160e+01    -2.4663139758e-05     2.7584807610e-05    -1.6264953163e-06     6.5779288106e-07     5.2782834802e+00     1.0835638160e+01    -1.1639321179e-05    -5.2898240385e-04    -8.7436458091e-04 4 0 0 0
66 1     1.3118177736e+01     2.0647750458e+01    -4.4330158038e-06    -5.3981826798e-07    -6.5549706213e-07     2.6661486595e-07     1.3118177736e+01     2.0647750458e+01    -1.3241895714e-04    -1.7249217044e-04    -1.1683203721e-03 4 0 0 0
67 1     3.1883940852e+01     1.7893191565e+00    -7.5055931717e-05     0.0000000000e+00     6.0638622960e-04    -1.1224699453e-03     3.1883940852e+01     1.7893191565e+00     2.7856312610e-04    -6.2625539599e-04    -1.0285561462e-03 0 0 0 0
68 1     2.8003081781e+01     9.1934780597e+00     0.0000000000e+00     0.0000000000e+00     0.0000000000e+00     0.0000000000e+00     2.8003081781e+01     9.1934780597e+00    -0.0000000000e+00    -0.0000000000e+00    -0.0000000000e+00 0 0 0 0
69 1     2.2164000539e+01     9.0036258172e-01    -7.5055931717e-05     0.0000000000e+00     1.6568148325e-05    -3.4032003515e-04     2.2164000539e+01     9.0036258172e-01    -5.8069845230e-04    -8.8166681708e-04    -5.0981223365e-04 0 0 0 0
70 1     3.2629193738e+01     3.6431488134e+00    -7.5055931717e-05     0.0000000000e+00     8.3530889484e-11     1.6390426343e-11     3.2629193738e+01     3.6431488134e+00    -2.6422962460e-04    -2.2246404611e-04    -8.3478192741e-04 0 0 0 0
71 1     9.8208421259e+00     1.4888942418e+01     4.0533316931e-08    -9.7326490513e-06     5.2669233473e-07     9.3776472773e-07     9.8208421259e+00     1.4888942418e+01    -4.8939009872e-04    -2.8678528558e-04    -1.5532331556e-03 3 0 0 0
72 1     1.3154047784e+01     1.7545856432e+00    -7.5055931717e-05     0.0000000000e+00     6.2205311191e-11     1.5216301742e-10     1.3154047784e+01     1.7545856432e+00    -1.0971973694e-03    -1.8344939521e-03    -7.1335467435e-04 0 0 0 0
73 1     1.2994915425e+01     1.6637341793e+02     7.5055931717e-05     0.0000000000e+00     8.0769806326e-06     6.4580524682e-04     1.2994915425e+01     1.6637341793e+02    -8.0659166892e-06    -1.0087910125e-07    -6.4492061518e-04 0 0 0 0
74 1     2.2691223593e+01     4.8342370827e+00    -7.5055931717e-05     0.0000000000e+00     9.3523036903e-11     8.5207379455e-11     2.2691223593e+01     4.8342370827e+00    -9.6070948848e-05    -1.4488644356e-03    -1.0962280727e-03 0 0 0 0
75 1     3.5159112218e+01     1.4739397049e+01    -4.9222694371e-06    -2.1310510886e-06    -1.7033169106e-06     1.0806892905e-06     3.5159112218e+01     1.4739397049e+01     1.2728015843e-04    -5.2120301457e-04    -1.7354067831e-03 4 0 0 0
76 1     9.8178756637e-01     1.2521558061e+01    -3.8768869533e-05     2.4371455671e-06    -3.5423148956e-06    -7.5278057304e-08     9.8178756637e-01     1.2521558061e+01    -1.3265683874e-04    -8.2664535013e-04    -1.0986218997e-03 4 0 0 0
77 1     1.7561475090e+01     6.5757602125e-01    -7.5055931717e-05     0.0000000000e+00     1.0494912789e-04    -1.2106157260e-03     1.7561475090e+01     6.5757602125e-01    -1.0426244866e-04    -1.4660290984e-03    -1.1656535645e-03 0 0 0 0
78 1     5.2814541244e+00     2.1381693014e+01    -1.0148571936e-07     1.0081228986e-06     7.3650525156e-08    -1.7283545546e-07     5.2814541244e+00     2.1381693014e+01     2.5568532358e-04    -1.1698971053e-03    -5.0676264925e-04 3 0 0 0
79 1     1.5357661581e+01     8.6314581394e+00    -6.9225171681e-05    -6.2280418000e-07    -5.0855464434e-07     3.6296580803e-07     1.5357661581e+01     8.6314581394e+00     6.1835426065e-04    -9.3318402492e-04    -1.7368255369e-03 2 0 2 0
80 1     3.2684124782e+01     5.6409349930e+00    -7.5055931717e-05     0.0000000000e+00     9.8843907763e-11     6.5523498031e-11     3.2684124782e+01     5.6409349930e+00    -2.6010963519e-04    -1.8623200182e-03    -1.2864598018e-03 0 0 0 0
81 1     3.8111266512e+01     1.8959506543e+01    -3.7574668874e-06     3.8539187484e-06    -1.0518163944e-06     1.4901501398e-06     3.8111266512e+01     1.8959506543e+01     1.1214046391e-04    -6.2646182879e-04    -6.2878517952e-05 3 0 0 0
82 1     3.8360874870e+01     2.5463269559e+01    -4.5746237119e-08    -9.6530421874e-07    -1.5886449255e-08    -1.2052524750e-07     3.8360874870e+01     2.5463269559e+01     2.2818809049e-04    -5.0777703041e-04    -1.5817718730e-04 4 0 0 0
83 1     1.8582042129e+01     3.6196284898e+01    -7.3452993852e-09     1.6129071734e-09    -2.7738087161e-09    -1.7444684512e-09     1.8582042129e+01     3.6196284898e+01     8.8540677393e-05    -2.6309905816e-03    -4.1429650243e-03 5 0 0 0
84 1     2.1107250353e+00     3.6269640938e+01     2.2362787219e-08     3.5966882313e-08     1.1296975459e-08     1.6649330983e-08     2.1107250353e+00     3.6269640938e+01    -3.3131069804e-04    -4.3915837423e-04    -1.9221994643e-03 4 0 0 0
85 1     1.6597381195e+01     3.5998075469e+01    -2.2815914060e-08     8.4617956658e-09    -8.5851825227e-09     1.8282911477e-09     1.6597381195e+01     3.5998075469e+01    -9.1726970521e-04    -3.2267023787e-03    -7.5972801139e-04 4 0 0 0
86 1     3.4623236998e+01     2.8656700415e+01    -5.0726724978e-07    -5.9956491605e-07    -1.5542704368e-07    -1.5749813941e-07     3.4623236998e+01     2.8656700415e+01    -2.1107019152e-04    -1.9828652713e-04    -6.8764497448e-04 3 0 0 0
87 1     5.3054337775e+00     3.6392486669e+01    -2.7102815031e-09     1.1350888520e-09    -2.1261128406e-09     1.7991046742e-09     5.3054337775e+00     3.6392486669e+01     3.2530549188e-04    -5.1144427258e-04    -1.2648263825e-03 4 0 0 0
88 1     3.8714012791e+01     3.8018842138e+01    -2.4707259684e-08    -5.1113787576e-08    -1.1467783130e-08    -2.4991099743e-08     3.8714012791e+01     3.8018842138e+01    -4.0585324577e-05    -3.2216606120e-05    -1.2811662264e-04 4 0 0 0
89 1     2.7102546122e+01     3.2340304575e+01    -1.0107439578e-07    -2.2282139981e-07    -3.9800803170e-08    -8.2560779674e-08     2.7102546122e+01     3.2340304575e+01     4.2691691136e-05    -9.8154559638e-05    -8.1567242919e-04 3 0 0 0
90 1     2.0571773840e+01     3.6005520876e+01     5.2612607896e-09    -1.9030915172e-08     2.2869208997e-09    -1.0070442150e-08     2.0571773840e+01     3.6005520876e+01    -3.2842523528e-05    -8.1924614324e-04    -8.5372711027e-04 5 0 0 0
91 1     5.4473797341e-01     3.1753149799e+01    -1.2750891943e-07     2.2502199977e-07    -5.3574023752e-08     8.5049227447e-08     5.4473797341e-01     3.1753149799e+01    -5.2435021614e-04    -8.0200696337e-04    -1.7694594376e-03 3 0 0 0
92 1     3.3808027440e+01     2.6832003199e+01     1.7998488344e-07    -1.2385758673e-06     2.1046626466e-08    -2.7434359235e-07     3.3808027440e+01     2.6832003199e+01     2.3404809917e-04    -6.9216716221e-04    -1.0746189659e-03 4 0 0 0
93 1     7.3009011765e+00     3.6267115815e+01    -4.9774187105e-09     7.7580180313e-09    -3.5595511287e-09     6.0771417048e-09     7.3009011765e+00     3.6267115815e+01     3.1204610889e-05    -2.1383028415e-04    -2.8440033065e-04 3 0 0 0
94 1     2.9179017847e+01     3.9392252398e+01    -1.0766188300e-08    -4.0603326527e-08    -5.4891544296e-09    -2.1979268724e-08     2.9179017847e+01     3.9392252398e+01    -3.3759316138e-04    -2.3770079592e-03    -8.4084954623e-04 4 0 0 0
95 1     2.3354656842e+01     4.3190367526e+01     3.8511027325e-10    -1.6631855510e-09     3.6628128964e-10    -1.1988924238e-09     2.3354656842e+01     4.3190367526e+01    -2.3785304200e-04    -6.6286261693e-04    -3.1200223242e-04 4 0 0 0
96 1     7.0347120582e+00     2.2340485821e+01     4.8875612856e-07    -2.4559525286e-08    -3.7909951580e-08     1.3048725703e-07     7.0347120582e+00     2.2340485821e+01     1.9179350268e-04    -1.4126716670e-03    -5.9101565411e-04 5 0 0 0
97 1     3.6576471691e+01     2.4089445820e+01    -5.6832459769e-07    -1.4832719182e-06    -2.2452467102e-07    -1.7268436009e-07     3.6576471691e+01     2.4089445820e+01     1.5799234189e-04    -5.5451034407e-04    -2.2097480276e-04 4 0 0 0
98 1     6.1913941824e+00     2.9102826032e+01     3.0866923892e-07     3.1589679889e-08     9.5912655265e-08     1.7259838680e-08     6.1913941824e+00     2.9102826032e+01    -3.9718661990e-04    -1.2115495118e-03    -1.3269555050e-03 5 0 0 0
99 1     1.7418484007e+01     3.7819447411e+01    -8.5627874426e-10     2.1222765649e-09    -3.4315445884e-11    -3.6659528039e-10     1.7418484007e+01     3.7819447411e+01     3.4254866561e-04    -1.0779797457e-03    -2.0633511622e-03 5 0 0 0
100 1     2.9423913828e+01     3.3423053825e+01     0.0000000000e+00     0.0000000000e+00     0.0000000000e+00     0.0000000000e+00     2.9423913828e+01     3.3423053825e+01    -0.0000000000e+00    -0.0000000000e+00    -0.0000000000e+00 0 0 0 0
101 1     3.8475863285e+01     2.3466647988e+01    -1.0593615493e-06    -1.0760733692e-06    -3.5808875969e-07    -5.8234051071e-08     3.8475863285e+01     2.3466647988e+01    -2.0163359397e-04    -7.5954287325e-04    -5.1086125458e-04 5 0 0 0
102 1     2.1657508202e+01     3.9743325191e+01    -1.0754946728e-09    -1.3333538724e-09    -7.9638119905e-10    -1.3190154920e-09     2.1657508202e+01     3.9743325191e+01    -6.9838446192e-04    -2.4383105268e-03    -1.8170065620e-03 4 0 0 0
103 1     7.5679403727e+00     3.0549772796e+01     2.3489682561e-07    -1.5429225607e-07     8.1793502211e-08    -4.2125657579e-08     7.5679403727e+00     3.0549772796e+01    -3.0699278813e-04    -1.4542250222e-03    -1.3678720320e-03 5 0 0 0
104 1     8.2629963227e+00     3.4514569939e+01     1.0084245176e-08     2.5898011352e-08     3.3117724009e-09     1.5554803120e-08     8.2629963227e+00     3.4514569939e+01     2.4857712868e-05    -9.6454995836e-04    -6.5869120466e-04 4 0 0 0
105 1     2.9016322486e+00     3.1293171245e+01     1.9086984295e-07     1.0503596381e-07     7.7708128835e-08     3.1876429981e-08     2.9016322486e+00     3.1293171245e+01    -3.7609525631e-04    -4.3559188648e-04    -5.6919598175e-04 3 0 0 0
106 1     2.9662666008e+01     2.1970938024e+01    -3.6758441687e-07     3.6442272153e-07    -2.9999256506e-07     1.8300209890e-07     2.9662666008e+01     2.1970938024e+01     1.0889397543e-03    -2.6733406016e-03    -1.9206787295e-03 4 0 0 0
107 1     1.0402600156e+01     2.6919062301e+01    -1.7826348089e-07    -1.8463550327e-06    -5.0135348826e-08    -3.9693331305e-07     1.0402600156e+01     2.6919062301e+01     2.8476738825e-04    -7.6018298219e-04    -6.6472767685e-04 3 0 0 0
108 1     1.4974516182e+01     2.1391482995e+01    -4.0736095267e-06     1.5046684571e-06    -7.3012804739e-07     3.4579634760e-07     1.4974516182e+01     2.1391482995e+01     3.0760182950e-05    -9.3063819645e-04    -2.2687508647e-03 5 0 0 0
109 1     2.4950943995e+01     2.1149162179e+01     1.8269176887e-06    -4.1674359560e-06     1.3273700976e-08    -5.5497803090e-07     2.4950943995e+01     2.1149162179e+01     2.3018977227e-04    -2.6432042230e-03    -3.0089012828e-03 5 0 0 0
110 1     2.3019447414e+00     2.4397435084e+01    -1.0238190641e-06     6.7875573360e-07    -3.3143496730e-07     8.2884841906e-08     2.3019447414e+00     2.4397435084e+01     3.1976025598e-05    -1.0025737638e-05    -1.1365883862e-04 3 0 0 0
111 1     3.7481467858e+00     3.5121436515e+01     3.0037286699e-08     2.9509940661e-08     1.5048691695e-08     1.5283554121e-08     3.7481467858e+00     3.5121436515e+01     2.6725009180e-05    -4.6375809957e-05    -2.1272186777e-05 3 0 0 0
112 1     2.1837109883e+01     1.9853834529e+01    -1.0208093998e-06     2.1178577286e-06    -4.8454763061e-07     3.4284613692e-07     2.1837109883e+01     1.9853834529e+01     1.4117819408e-04    -4.3623755362e-04    -2.5582234271e-04 3 0 0 0
113 1     8.0357778763e+00     3.8126505858e+01     1.0829167304e-08    -1.7930955250e-09     6.3534893180e-09     1.6276605737e-10     8.0357778763e+00     3.8126505858e+01     5.2242414405e-04    -8.9121009173e-04    -1.2428224549e-03 4 0 0 0
114 1     2.9550504708e+01     3.5419111286e+01     0.0000000000e+00     0.0000000000e+00     0.0000000000e+00     0.0000000000e+00     2.9550504708e+01     3.5419111286e+01    -0.0000000000e+00    -0.0000000000e+00    -0.0000000000e+00 0 0 0 0
115 1     1.2360461295e+01     2.7320247757e+01    -3.3097496549e-07     4.8496554843e-08    -9.8635572746e-08     7.1955355047e-08     1.2360461295e+01     2.7320247757e+01     5.4313967979e-04    -1.2875472681e-03    -1.1661502768e-03 4 0 0 0
116 1     3.7081382215e+00     3.3121857578e+01     9.1329498429e-08     4.1117135603e-08     3.6604171514e-08     1.8242395140e-08     3.7081382215e+00     3.3121857578e+01     1.8600074026e-04    -2.1251268651e-03    -8.9834043523e-04 5 0 0 0
117 1     7.7486226606e+00     3.2539462492e+01    -1.1281292883e-08    -9.6580979918e-08    -2.1450369984e-09    -2.9694225725e-08     7.7486226606e+00     3.2539462492e+01     1.6360767621e-04    -9.1378896713e-04    -8.5948979355e-04 3 0 0 0
118 1     3.0179527520e+01     2.6151583188e+01     1.3951407535e-07    -2.5462306811e-07     2.2075300614e-08    -5.4681570202e-08     3.0179527520e+01     2.6151583188e+01    -3.4537940620e-04    -5.3114389974e-04    -7.6089927568e-04 4 0 0 0
119 1     3.6163034511e+01     1.9406271194e+01    -5.0284040697e-06    -2.3125675804e-06    -1.4490059129e-06     2.1605982352e-07     3.6163034511e+01     1.9406271194e+01    -9.6785380224e-05    -7.0682089266e-04    -3.2168884831e-04 4 0 0 0
120 1     2.5049361407e+01     2.5920191482e+01     1.0043423659e-07    -1.5043195387e-06     9.6640941829e-09    -3.0746078882e-07     2.5049361407e+01     2.5920191482e+01     4.5273803281e-04    -1.1690120484e-03    -2.6644195241e-03 4 0 0 0
121 1     3.9207159519e+00     2.5896116556e+01    -4.8149882323e-08    -2.9927661300e-07    -1.9132473867e-08    -2.5198892697e-08     3.9207159519e+00     2.5896116556e+01     3.8992431499e-04    -1.5510468098e-03    -6.3127860818e-04 3 0 0 0