ITEM: TIMESTEP
0
ITEM: NUMBER OF ATOMS
4556
ITEM: BOX BOUNDS pp ff pp
0.0000000000000000e+00 1.5011186343322501e+02
0.0000000000000000e+00 1.6691186343322499e+02
-1.0000000000000000e-02 1.0000000000000000e-02
ITEM: ATOMS id type x y vx vy fx fy xu yu c_shearStr[4] c_shearStr[1] c_shearStr[2] v_coordA v_coordB v_coordA_wall v_coordB_wall
1 1     3.8648859854e+01     3.2112242274e+00    -7.5055931717e-05     0.0000000000e+00     3.4586453725e-11     5.7813394608e-11     3.8648859854e+01     3.2112242274e+00     1.3519282798e-05    -1.2264112750e-05    -2.5524784962e-05 0 0 0 0
2 1     3.7909600531e+01     1.3528864139e+00    -7.5055931717e-05     0.0000000000e+00     2.6097361752e-05    -4.9940246666e-05     3.7909600531e+01     1.3528864139e+00    -5.7883085646e-06    -5.3316321409e-04    -1.3450328920e-04 0 0 0 0
3 1     1.6100689340e+01     4.3742392364e+00    -7.5055931717e-05     0.0000000000e+00     2.1923683691e-10     1.3667568596e-11     1.6100689340e+01     4.3742392364e+00    -7.4905184616e-04    -6.3932479991e-04    -2.9394948560e-03 0 0 0 0
4 1     3.1277959541e+01     1.4773188683e+01     0.0000000000e+00     0.0000000000e+00    -3.1430229513e-13     2.7774541564e-12     3.1277959541e+01     1.4773188683e+01    -7.8712344801e-04    -2.3583453733e-03    -8.6443017798e-04 4 0 0 0
5 1     2.3806868276e+01     1.9513124611e+01     0.0000000000e+00     0.0000000000e+00    -1.5227169352e-11     1.9145712576e-12     2.3806868276e+01     1.9513124611e+01    -6.8231989012e-04    -7.6914013906e-04    -1.3158032353e-03 4 0 0 0
6 1     1.9352277280e+01     6.9198837191e+00    -7.5055931717e-05     0.0000000000e+00     5.3588870429e-05     1.4277994704e-06     1.9352277280e+01     6.9198837191e+00     3.2445091326e-04    -4.5938223339e-04    -8.8552756962e-04 0 0 0 0
7 1     1.2481732034e+01     1.8753871173e+01     0.0000000000e+00     0.0000000000e+00    -3.2145856831e-11    -3.5992907277e-11     1.2481732034e+01     1.8753871173e+01    -4.6803804559e-04    -2.7199208500e-03    -1.4438188051e-03 5 0 0 0
8 1     3.1418227389e+01     1.6481722641e+02     7.5055931717e-05     0.0000000000e+00    -1.0622411262e-10     2.1238088631e-10     3.1418227389e+01     1.6481722641e+02    -6.6402769573e-04    -1.2472897863e-03    -1.0873764212e-03 0 0 0 0
9 1     3.0735814031e+01     5.2090817653e+00    -7.5055931717e-05     0.0000000000e+00     1.0322940658e-10    -1.1394439082e-10     3.0735814031e+01     5.2090817653e+00    -7.0902302885e-05    -1.6573630707e-03    -1.1841093292e-03 0 0 0 0
10 1     1.1012309292e+01     2.2163955727e+01     0.0000000000e+00     0.0000000000e+00    -7.4295311060e-11     2.4170271904e-11     1.1012309292e+01     2.2163955727e+01    -7.4676543208e-04    -2.4659421461e-03    -2.0154084088e-03 4 0 0 0
11 1     3.7620209993e+01     1.2482035305e+01     0.0000000000e+00     0.0000000000e+00     2.1614198604e-11     1.6161177296e-11     3.7620209993e+01     1.2482035305e+01    -4.3334165357e-04    -1.4816257179e-03    -1.0005869526e-03 4 0 0 0
12 1     1.5203236039e+01     1.6627707869e+01     0.0000000000e+00     0.0000000000e+00     8.8440275611e-12    -4.1925430575e-11     1.5203236039e+01     1.6627707869e+01     3.0376960582e-04    -5.0971232630e-04    -1.1081275912e-03 4 0 0 0
13 1     3.6013801174e+01     8.9647929245e+00     0.0000000000e+00     0.0000000000e+00    -2.3450193400e-05    -3.4787428503e-05     3.6013801174e+01     8.9647929245e+00    -2.1104620234e-04    -5.9850597313e-04    -7.1410407963e-04 3 0 1 0
14 1     2.2984445578e+01     1.7693750474e+01     0.0000000000e+00     0.0000000000e+00    -1.7232353728e-11    -8.4012520248e-12     2.2984445578e+01     1.7693750474e+01    -1.4132741180e-04    -1.1529282241e-03    -1.6190625221e-03 4 0 0 0
15 1     1.4833897143e+01     2.8319759939e+00    -7.5055931717e-05     0.0000000000e+00     6.8458637956e-11     1.4790214073e-10     1.4833897143e+01     2.8319759939e+00    -6.2838363205e-04    -2.4800465168e-03    -1.5099491274e-03 0 0 0 0
16 1     1.0261186441e+00     4.9192654574e+00    -7.5055931717e-05     0.0000000000e+00     3.8444394776e-11     2.6258758281e-10     1.0261186441e+00     4.9192654574e+00    -1.7274196192e-04    -3.5912479343e-04    -4.6945579359e-04 0 0 0 0
17 1     2.5187814582e+00     1.1244520062e+01     0.0000000000e+00     0.0000000000e+00    -4.8237220154e-11     5.3454700789e-11     2.5187814582e+00     1.1244520062e+01    -1.4188717435e-04    -9.1515689598e-04    -1.2713547105e-03 4 0 0 0
18 1     8.0097601517e+00     1.5736442625e+01     0.0000000000e+00     0.0000000000e+00    -4.8017270634e-12     1.7676686449e-11     8.0097601517e+00     1.5736442625e+01    -1.3018201459e-05    -1.9111984007e-04    -1.6716411068e-04 3 0 0 0
19 1     4.6128797964e+00     4.3223698403e+00    -7.5055931717e-05     0.0000000000e+00    -1.3981258913e-11     1.7243909870e-10     4.6128797964e+00     4.3223698403e+00     3.6123978634e-04    -1.1747231395e-03    -1.0873236342e-03 0 0 0 0
20 1     3.0841123659e+01     1.2822534504e+01     0.0000000000e+00     0.0000000000e+00    -4.7041784937e-12    -7.9478728286e-12     3.0841123659e+01     1.2822534504e+01     5.2782938163e-04    -5.4323767841e-04    -9.9572806457e-04 3 0 0 0
21 1     2.5944209172e+01     1.6484414677e+02     7.5055931717e-05     0.0000000000e+00    -9.8739875735e-11     1.5511139097e-10     2.5944209172e+01     1.6484414677e+02     8.3295093640e-11    -5.3023489403e-11    -1.3084903884e-10 0 0 0 0
22 1     3.4387678430e+01     4.5956165588e+00    -7.5055931717e-05     0.0000000000e+00     7.4207819204e-11     8.6771861885e-11     3.4387678430e+01     4.5956165588e+00     5.1186546767e-04    -1.0231557455e-03    -8.7467147044e-04 0 0 0 0
23 1     3.6356401625e+01     1.0933637413e+01     0.0000000000e+00     0.0000000000e+00     3.9248807112e-13    -4.6931301076e-13     3.6356401625e+01     1.0933637413e+01    -3.0461399884e-05    -1.1109618215e-03    -7.1087912469e-04 5 0 0 0
24 1     2.1015544106e+01     1.8030962853e+01     0.0000000000e+00     0.0000000000e+00    -7.9454480918e-13    -9.2084559379e-12     2.1015544106e+01     1.8030962853e+01     6.7923330474e-05    -1.1278681112e-03    -5.9348391039e-04 4 0 0 0
25 1     1.1446514003e+01     7.2423694996e-01    -7.5055931717e-05     0.0000000000e+00     4.0920698298e-04    -7.3620822643e-04     1.1446514003e+01     7.2423694996e-01    -6.8215748292e-04    -2.3351115324e-03    -6.4276675663e-04 0 0 0 0
26 1     1.8212975912e+01     8.5611741423e+00     0.0000000000e+00     0.0000000000e+00    -5.2798545185e-05    -1.2402479276e-06     1.8212975912e+01     8.5611741423e+00    -1.6007125101e-03    -1.3745136426e-03    -3.4739645697e-03 1 0 2 0
27 1     3.7699220209e+01     4.9713156843e+00    -7.5055931717e-05     0.0000000000e+00     6.7621548660e-11     7.7566703061e-11     3.7699220209e+01     4.9713156843e+00    -1.1616815917e-03    -1.1553665008e-03    -1.5891106163e-03 0 0 0 0
28 1     6.3382992547e+00     1.9685943056e+01     0.0000000000e+00     0.0000000000e+00    -1.1539196573e-11     2.8713295630e-11     6.3382992547e+00     1.9685943056e+01     7.3205634866e-05    -1.4008531075e-03    -1.0863630794e-03 5 0 0 0
29 1     3.8328849923e+01     1.0613633438e+01     0.0000000000e+00     0.0000000000e+00     1.0824604369e-11    -7.3660415875e-12     3.8328849923e+01     1.0613633438e+01     6.0781464477e-04    -1.0763970278e-03    -7.2919512379e-04 4 0 0 0
30 1     3.4385018312e+01     1.1257726099e+01     0.0000000000e+00     0.0000000000e+00    -1.7592628417e-11    -1.3658861368e-12     3.4385018312e+01     1.1257726099e+01    -4.4919249195e-04    -1.8446555788e-03    -1.3118529951e-03 5 0 0 0
31 1     2.3551196546e+00     1.9787515147e+01     0.0000000000e+00     0.0000000000e+00     1.9336333451e-11     1.9184455280e-11     2.3551196546e+00     1.9787515147e+01     4.4641787912e-04    -9.5386722807e-04    -9.4532609743e-04 5 0 0 0
32 1     1.0928509235e+01     2.6547535874e+00    -7.5055931717e-05     0.0000000000e+00     3.3941905954e-12     2.2678694906e-10     1.0928509235e+01     2.6547535874e+00     1.7914031328e-05    -4.1528240076e-04    -5.5644750983e-04 0 0 0 0
33 1     6.2199590090e+00     1.4845005143e+01     0.0000000000e+00     0.0000000000e+00     1.7584218044e-12    -9.9206157612e-12     6.2199590090e+00     1.4845005143e+01     2.0482547319e-05    -2.4177319932e-04    -1.3850439918e-04 3 0 0 0
34 1     3.0498747261e+01     3.2255158457e+00    -7.5055931717e-05     0.0000000000e+00    -4.9289389071e-11    -6.7209510201e-11     3.0498747261e+01     3.2255158457e+00     6.5636280333e-04    -1.2566277592e-03    -1.4201083335e-03 0 0 0 0
35 1     2.2261937251e+01     1.6581595320e+02     7.5055931717e-05     0.0000000000e+00    -1.6568355077e-05     3.4031997702e-04     2.2261937251e+01     1.6581595320e+02    -3.3670644299e-05    -3.9192663782e-04    -2.2863354683e-04 0 0 0 0
36 1     1.8782940679e+01     2.2377843337e+00    -7.5055931717e-05     0.0000000000e+00    -1.0373102984e-11     9.2899387185e-12     1.8782940679e+01     2.2377843337e+00    -2.9641839555e-04    -2.2459203534e-03    -2.3012649839e-03 0 0 0 0
37 1     2.7087457698e+01     6.4414873967e+00    -7.5055931717e-05     0.0000000000e+00     4.6895941991e-11     6.5692988267e-11     2.7087457698e+01     6.4414873967e+00     1.6827044915e-04    -3.0681971997e-03    -2.1635512942e-03 0 0 0 0
38 1     1.3785680326e+01     1.2899402118e+01     0.0000000000e+00     0.0000000000e+00     9.2099209390e-12     4.9130372839e-11     1.3785680326e+01     1.2899402118e+01     3.6130301462e-05    -1.9499766858e-04    -1.1052998943e-03 3 0 0 0
39 1     3.4040956769e+01     9.2898711095e+00     0.0000000000e+00     0.0000000000e+00    -5.6949697186e-05    -1.5637283036e-05     3.4040956769e+01     9.2898711095e+00    -1.4810551015e-04    -4.5199037299e-04    -1.0792924596e-03 2 0 2 0
40 1     2.9566790429e+00     5.4399711013e+00    -7.5055931717e-05     0.0000000000e+00     3.3246024315e-11     1.9282545742e-10     2.9566790429e+00     5.4399711013e+00     3.4969338984e-04    -1.4964299053e-03    -2.0521201353e-03 0 0 0 0
41 1     3.7067716128e+01     6.8680912685e+00    -7.5055931717e-05     0.0000000000e+00     1.5858982873e-05     3.0642223412e-05     3.7067716128e+01     6.8680912685e+00     6.4920854339e-05    -1.3009886344e-03    -3.7294975919e-04 0 0 0 0
42 1     9.3090482686e+00     1.2958924425e+01     0.0000000000e+00     0.0000000000e+00    -9.8294322172e-12    -5.7962709936e-11     9.3090482686e+00     1.2958924425e+01    -1.3567125934e-04    -1.6104903018e-03    -1.3548111559e-03 4 0 0 0
43 1     1.3222175879e+01     1.6897007795e+01     0.0000000000e+00     0.0000000000e+00    -1.1616695493e-11    -2.2014879096e-11     1.3222175879e+01     1.6897007795e+01     7.3533297258e-06    -2.5436448319e-04    -4.2236729685e-04 3 0 0 0
44 1     2.0841158127e+01     5.5868714427e+00    -7.5055931717e-05     0.0000000000e+00    -2.3369661891e-11    -1.9355065212e-10     2.0841158127e+01     5.5868714427e+00     2.8912095390e-04    -8.3650936028e-04    -2.8214857216e-04 0 0 0 0
45 1     3.7155621770e+01     1.4520675801e+01     0.0000000000e+00     0.0000000000e+00     0.0000000000e+00     0.0000000000e+00     3.7155621770e+01     1.4520675801e+01    -0.0000000000e+00    -0.0000000000e+00    -0.0000000000e+00 0 0 0 0
46 1     2.0607687193e+01     1.3925485838e+01     0.0000000000e+00     0.0000000000e+00     1.9717480144e-12     3.1135869707e-12     2.0607687193e+01     1.3925485838e+01    -4.3360805467e-04    -1.8190624982e-03    -2.6655030881e-03 4 0 0 0
47 1     1.6803839850e+01     2.5049633891e+00    -7.5055931717e-05     0.0000000000e+00     1.7124968978e-11    -5.1906737914e-11     1.6803839850e+01     2.5049633891e+00     7.2037811038e-04    -1.6715200699e-03    -1.2988783602e-03 0 0 0 0
48 1     4.6149831991e+00     1.8366497930e+00    -7.5055931717e-05     0.0000000000e+00     1.1553046605e-11     2.6319790688e-10     4.6149831991e+00     1.8366497930e+00    -2.3038916657e-05    -1.5177221808e-03    -7.2388083086e-04 0 0 0 0
49 1     3.7986534464e+01     8.6434059662e+00     0.0000000000e+00     0.0000000000e+00    -1.5857043791e-05    -3.0638526731e-05     3.7986534464e+01     8.6434059662e+00    -1.7721866495e-04    -8.3561499559e-04    -2.7551076092e-04 3 0 1 0
50 1     3.0010037637e+01     9.4822392551e+00     0.0000000000e+00     0.0000000000e+00    -5.4331255663e-06    -1.9449153691e-05     3.0010037637e+01     9.4822392551e+00    -2.5342576516e-04    -7.3400499247e-04    -1.4339767004e-03 2 0 1 0
51 1     1.4618159354e+01     1.4716317743e+01     0.0000000000e+00     0.0000000000e+00    -1.9493085355e-11     3.0270221009e-12     1.4618159354e+01     1.4716317743e+01    -2.9936484205e-04    -1.3183036840e-03    -5.5513706930e-04 4 0 0 0
52 1     4.3427334240e+00     1.9584014662e+01     0.0000000000e+00     0.0000000000e+00    -1.5684212663e-11     1.0767455870e-11     4.3427334240e+00     1.9584014662e+01     6.8395739240e-05    -9.7137538350e-04    -8.5256636498e-05 3 0 0 0
53 1     3.5648916273e+01     1.2803795442e+01     0.0000000000e+00     0.0000000000e+00     1.3750342824e-12    -2.2959737410e-13     3.5648916273e+01     1.2803795442e+01    -3.0369490301e-05    -1.0089003157e-03    -1.3697649927e-03 4 0 0 0
54 1     1.9360162110e+01     1.9149652979e+01     0.0000000000e+00     0.0000000000e+00    -5.1256053438e-13    -1.8881770225e-11     1.9360162110e+01     1.9149652979e+01    -4.4416243826e-04    -1.0640590947e-03    -1.2935878449e-03 3 0 0 0
55 1     1.5830194868e+01     1.2915647232e+01     0.0000000000e+00     0.0000000000e+00     0.0000000000e+00     0.0000000000e+00     1.5830194868e+01     1.2915647232e+01    -0.0000000000e+00    -0.0000000000e+00    -0.0000000000e+00 0 0 0 0
56 1     3.3921428256e+01     2.0011160616e+00    -7.5055931717e-05     0.0000000000e+00     0.0000000000e+00     0.0000000000e+00     3.3921428256e+01     2.0011160616e+00    -0.0000000000e+00    -0.0000000000e+00    -0.0000000000e+00 0 0 0 0
57 1     6.1773485993e+00     3.0817207393e+00    -7.5055931717e-05     0.0000000000e+00     3.3196132922e-11     2.3381534414e-10     6.1773485993e+00     3.0817207393e+00     3.5210996417e-04    -2.1032864788e-03    -6.0841752910e-04 0 0 0 0
58 1     1.1561016643e+01     6.8395147321e+00    -7.5055931717e-05     0.0000000000e+00     4.4516727721e-07    -5.7593600510e-06     1.1561016643e+01     6.8395147321e+00    -6.4462435015e-04    -1.7706445969e-03    -2.5909303375e-03 0 0 0 0
59 1     3.0153168117e+00     6.3987682713e-01    -7.5055931717e-05     0.0000000000e+00     6.2928183854e-04    -5.1127909909e-04     3.0153168117e+00     6.3987682713e-01    -4.9496424526e-05    -1.6151378467e-03    -2.3365401798e-04 0 0 0 0
60 1     9.4726005427e+00     4.3983764653e-01    -7.5055931717e-05     0.0000000000e+00    -8.5106355857e-04    -1.5094384915e-03     9.4726005427e+00     4.3983764653e-01     4.1511035386e-04    -1.6571507190e-03    -1.4643610805e-03 0 0 0 0
61 1     4.2890019499e+00     1.5363767495e+01     0.0000000000e+00     0.0000000000e+00    -6.2792004669e-12     3.5627653171e-13     4.2890019499e+00     1.5363767495e+01    -5.3666772153e-04    -9.0759946601e-04    -1.3292694532e-03 4 0 0 0
62 1     2.3908196303e+01     1.6468224172e+02     7.5055931717e-05     0.0000000000e+00     1.4173284980e-04     4.2262860797e-04     2.3908196303e+01     1.6468224172e+02     1.7968772258e-04    -4.1223276046e-04    -6.2048606877e-04 0 0 0 0
63 1     2.8902409569e+01     2.0225530352e+00    -7.5055931717e-05     0.0000000000e+00    -3.6519804514e-11    -4.6982387897e-11     2.8902409569e+01     2.0225530352e+00     1.0615344054e-04    -7.5605936826e-04    -3.5808834668e-04 0 0 0 0
64 1     1.9040325962e+01     1.0372791060e+01     0.0000000000e+00     0.0000000000e+00     6.1334742081e-12     1.1222753412e-11     1.9040325962e+01     1.0372791060e+01    -1.1768144439e-03    -2.0948575696e-03    -3.6435086064e-03 5 0 0 0
65 1     5.2784340622e+00     1.0835439795e+01     0.0000000000e+00     0.0000000000e+00    -1.1917981521e-12    -1.4664297879e-13     5.2784340622e+00     1.0835439795e+01    -2.0787692710e-05    -5.0879290911e-04    -8.3566345225e-04 4 0 0 0
66 1     1.3118193100e+01     2.0647755083e+01     0.0000000000e+00     0.0000000000e+00    -4.2444929756e-11     2.6853533177e-11     1.3118193100e+01     2.0647755083e+01    -1.3619921245e-04    -1.7365034467e-04    -1.1733780325e-03 4 0 0 0
67 1     3.1884691411e+01     1.7893191565e+00    -7.5055931717e-05     0.0000000000e+00     6.0638622960e-04    -1.1224699453e-03     3.1884691411e+01     1.7893191565e+00     2.7856312610e-04    -6.2625539599e-04    -1.0285561462e-03 0 0 0 0
68 1     2.8003081781e+01     9.1934780597e+00     0.0000000000e+00     0.0000000000e+00     0.0000000000e+00     0.0000000000e+00     2.8003081781e+01     9.1934780597e+00    -0.0000000000e+00    -0.0000000000e+00    -0.0000000000e+00 0 0 0 0
69 1     2.2164751099e+01     9.0036258172e-01    -7.5055931717e-05     0.0000000000e+00     1.6568148325e-05    -3.4032003515e-04     2.2164751099e+01     9.0036258172e-01    -5.8069845230e-04    -8.8166681708e-04    -5.0981223365e-04 0 0 0 0
70 1     3.2629944298e+01     3.6431488134e+00    -7.5055931717e-05     0.0000000000e+00     8.3530889484e-11     1.6390426343e-11     3.2629944298e+01     3.6431488134e+00    -2.6422962460e-04    -2.2246404611e-04    -8.3478192741e-04 0 0 0 0
71 1     9.8208526927e+00     1.4889016354e+01     0.0000000000e+00     0.0000000000e+00     9.2825938451e-12     5.0086515989e-11     9.8208526927e+00     1.4889016354e+01    -4.9404636085e-04    -2.8939977471e-04    -1.5677722396e-03 3 0 0 0
72 1     1.3154798343e+01     1.7545856432e+00    -7.5055931717e-05     0.0000000000e+00     6.2205311191e-11     1.5216301742e-10     1.3154798343e+01     1.7545856432e+00    -1.0971973694e-03    -1.8344939521e-03    -7.1335467435e-04 0 0 0 0
73 1     1.2994164866e+01     1.6637341793e+02     7.5055931717e-05     0.0000000000e+00     8.0769806326e-06     6.4580524682e-04     1.2994164866e+01     1.6637341793e+02    -8.0659166892e-06    -1.0087910125e-07    -6.4492061518e-04 0 0 0 0
74 1     2.2691974152e+01     4.8342370827e+00    -7.5055931717e-05     0.0000000000e+00     9.3523036903e-11     8.5207379455e-11     2.2691974152e+01     4.8342370827e+00    -9.6070948848e-05    -1.4488644356e-03    -1.0962280727e-03 0 0 0 0
75 1     3.5159117595e+01     1.4739431596e+01     0.0000000000e+00     0.0000000000e+00    -8.7841573479e-12     2.5089862588e-11     3.5159117595e+01     1.4739431596e+01     1.2708926243e-04    -5.2268652410e-04    -1.7353624011e-03 4 0 0 0
76 1     9.8197534313e-01     1.2521535031e+01     0.0000000000e+00     0.0000000000e+00     2.6378114645e-12     1.4850812908e-11     9.8197534313e-01     1.2521535031e+01    -1.5657004677e-04    -8.2588890727e-04    -1.1061862128e-03 4 0 0 0
77 1     1.7562225650e+01     6.5757602125e-01    -7.5055931717e-05     0.0000000000e+00     1.0494912820e-04    -1.2106157260e-03     1.7562225650e+01     6.5757602125e-01    -1.0426244869e-04    -1.4660290988e-03    -1.1656535645e-03 0 0 0 0
78 1     5.2814552874e+00     2.1381687801e+01     0.0000000000e+00     0.0000000000e+00    -4.0425664444e-11    -4.0710672680e-12     5.2814552874e+00     2.1381687801e+01     2.5578601201e-04    -1.1699567940e-03    -5.0690927554e-04 3 0 0 0
79 1     1.5358226922e+01     8.6314739075e+00     0.0000000000e+00     0.0000000000e+00    -5.0952749656e-05    -2.5179865130e-07     1.5358226922e+01     8.6314739075e+00     6.1861135987e-04    -9.2556597850e-04    -1.7298675261e-03 2 0 2 0
80 1     3.2684875342e+01     5.6409349930e+00    -7.5055931717e-05     0.0000000000e+00     9.8843907763e-11     6.5523498031e-11     3.2684875342e+01     5.6409349930e+00    -2.6010963519e-04    -1.8623200182e-03    -1.2864598018e-03 0 0 0 0
81 1     3.8111275818e+01     1.8959503236e+01     0.0000000000e+00     0.0000000000e+00    -2.6247085289e-11     5.6305915198e-12     3.8111275818e+01     1.8959503236e+01     1.1145264915e-04    -6.2425380333e-04    -6.1100823907e-05 3 0 0 0
82 1     3.8360875014e+01     2.5463272613e+01     0.0000000000e+00     0.0000000000e+00     2.0844589076e-12    -7.9268173920e-12     3.8360875014e+01     2.5463272613e+01     2.2795400022e-04    -5.0743166905e-04    -1.5856359396e-04 4 0 0 0
83 1     1.8582042143e+01     3.6196284888e+01     0.0000000000e+00     0.0000000000e+00     9.7832592721e-13    -2.7566969974e-11     1.8582042143e+01     3.6196284888e+01     8.8535913526e-05    -2.6310279645e-03    -4.1429455655e-03 5 0 0 0
84 1     2.1107250014e+00     3.6269640878e+01     0.0000000000e+00     0.0000000000e+00    -5.9388870991e-11     1.3771495717e-11     2.1107250014e+00     3.6269640878e+01    -3.3127712602e-04    -4.3914579342e-04    -1.9221094227e-03 4 0 0 0
85 1     1.6597381237e+01     3.5998075450e+01     0.0000000000e+00     0.0000000000e+00    -1.8754870730e-11     2.6700303860e-11     1.6597381237e+01     3.5998075450e+01    -9.1728499879e-04    -3.2267601736e-03    -7.5972829753e-04 4 0 0 0
86 1     3.4623238118e+01     2.8656701821e+01     0.0000000000e+00     0.0000000000e+00     5.7171099249e-12     2.7903702406e-11     3.4623238118e+01     2.8656701821e+01    -2.1133518522e-04    -1.9841931158e-04    -6.8851785287e-04 3 0 0 0
87 1     5.3054337815e+00     3.6392486670e+01     0.0000000000e+00     0.0000000000e+00    -4.9120678296e-11    -4.5844173184e-12     5.3054337815e+00     3.6392486670e+01     3.2530420102e-04    -5.1144001233e-04    -1.2648289547e-03 4 0 0 0
88 1     3.8714012833e+01     3.8018842217e+01     0.0000000000e+00     0.0000000000e+00    -6.0916811388e-11    -5.1694889370e-11     3.8714012833e+01     3.8018842217e+01    -4.0638878371e-05    -3.2249736305e-05    -1.2823100629e-04 4 0 0 0
89 1     2.7102546308e+01     3.2340305000e+01     0.0000000000e+00     0.0000000000e+00     9.9186772280e-12    -8.6015169054e-12     2.7102546308e+01     3.2340305000e+01     4.2671208871e-05    -9.8160837653e-05    -8.1597825925e-04 3 0 0 0
90 1     2.0571773831e+01     3.6005520903e+01     0.0000000000e+00     0.0000000000e+00    -3.4766750188e-11    -1.6062479715e-11     2.0571773831e+01     3.6005520903e+01    -3.2809797540e-05    -8.1929061391e-04    -8.5377181792e-04 5 0 0 0
91 1     5.4473820575e-01     3.1753149361e+01     0.0000000000e+00     0.0000000000e+00    -4.0825481992e-11     9.7815716030e-12     5.4473820575e-01     3.1753149361e+01    -5.2434707933e-04    -8.0193297124e-04    -1.7691780696e-03 3 0 0 0
92 1     3.3808026918e+01     2.6832006446e+01     0.0000000000e+00     0.0000000000e+00    -2.7727317729e-11    -3.8805792049e-11     3.3808026918e+01     2.6832006446e+01     2.3397442227e-04    -6.9195799931e-04    -1.0760899181e-03 4 0 0 0
93 1     7.3009011832e+00     3.6267115807e+01     0.0000000000e+00     0.0000000000e+00    -3.6029718705e-11     1.5982778252e-12     7.3009011832e+00     3.6267115807e+01     3.1200930640e-05    -2.1382355045e-04    -2.8438794964e-04 3 0 0 0
94 1     2.9179017864e+01     3.9392252457e+01     0.0000000000e+00     0.0000000000e+00    -2.8129317452e-11    -7.8602665826e-12     2.9179017864e+01     3.9392252457e+01    -3.3761184387e-04    -2.3770284464e-03    -8.4087949853e-04 4 0 0 0
95 1     2.3354656843e+01     4.3190367528e+01     0.0000000000e+00     0.0000000000e+00    -2.9853757894e-11    -3.1768101875e-12     2.3354656843e+01     4.3190367528e+01    -2.3785117935e-04    -6.6286453813e-04    -3.1200192625e-04 4 0 0 0
96 1     7.0347099392e+00     2.2340486922e+01     0.0000000000e+00     0.0000000000e+00    -1.2841629480e-11    -2.7475554113e-11     7.0347099392e+00     2.2340486922e+01     1.9178288816e-04    -1.4124815548e-03    -5.9165352701e-04 5 0 0 0
97 1     3.6576472696e+01     2.4089450828e+01     0.0000000000e+00     0.0000000000e+00    -3.6503766874e-11     1.1515654736e-11     3.6576472696e+01     2.4089450828e+01     1.5776293055e-04    -5.5291268678e-04    -2.2217046003e-04 4 0 0 0
98 1     6.1913935112e+00     2.9102825990e+01     0.0000000000e+00     0.0000000000e+00    -2.3889343899e-11     4.9426868306e-12     6.1913935112e+00     2.9102825990e+01    -3.9690958994e-04    -1.2115747224e-03    -1.3265574820e-03 5 0 0 0
99 1     1.7418484010e+01     3.7819447405e+01     0.0000000000e+00     0.0000000000e+00    -6.3733165365e-11    -4.4817473842e-11     1.7418484010e+01     3.7819447405e+01     3.4254339669e-04    -1.0779733964e-03    -2.0633501723e-03 5 0 0 0
100 1     2.9423913828e+01     3.3423053825e+01     0.0000000000e+00     0.0000000000e+00     0.0000000000e+00     0.0000000000e+00     2.9423913828e+01     3.3423053825e+01    -0.0000000000e+00    -0.0000000000e+00    -0.0000000000e+00 0 0 0 0
101 1     3.8475865516e+01     2.3466652234e+01     0.0000000000e+00     0.0000000000e+00    -2.9493135690e-11    -5.2870547634e-11     3.8475865516e+01     2.3466652234e+01    -2.0406589437e-04    -7.6010709285e-04    -5.1164559003e-04 5 0 0 0
102 1     2.1657508204e+01     3.9743325193e+01     0.0000000000e+00     0.0000000000e+00    -2.8076895192e-11    -2.3695824166e-11     2.1657508204e+01     3.9743325193e+01    -6.9838526437e-04    -2.4383127418e-03    -1.8170088322e-03 4 0 0 0
103 1     7.5679398986e+00     3.0549773154e+01     0.0000000000e+00     0.0000000000e+00    -3.0742105130e-11    -2.6008937517e-11     7.5679398986e+00     3.0549773154e+01    -3.0662199640e-04    -1.4541787612e-03    -1.3681505751e-03 5 0 0 0
104 1     8.2629963047e+00     3.4514569904e+01     0.0000000000e+00     0.0000000000e+00    -5.0063713835e-11     1.5952136476e-11     8.2629963047e+00     3.4514569904e+01     2.4850692020e-05    -9.6446329604e-04    -6.5864099068e-04 4 0 0 0
105 1     2.9016318989e+00     3.1293171021e+01     0.0000000000e+00     0.0000000000e+00    -1.5766159943e-11    -2.2358232507e-11     2.9016318989e+00     3.1293171021e+01    -3.7590348239e-04    -4.3543601369e-04    -5.6891347735e-04 3 0 0 0
106 1     2.9662665595e+01     2.1970937602e+01     0.0000000000e+00     0.0000000000e+00     5.7743538683e-12     5.1430787797e-12     2.9662665595e+01     2.1970937602e+01     1.0884927523e-03    -2.6698956498e-03    -1.9191223906e-03 4 0 0 0
107 1     1.0402600531e+01     2.6919067330e+01     0.0000000000e+00     0.0000000000e+00    -6.0657705150e-11     6.4461426648e-12     1.0402600531e+01     2.6919067330e+01     2.8524542817e-04    -7.6113024759e-04    -6.6607456046e-04 3 0 0 0
108 1     1.4974528855e+01     2.1391478074e+01     0.0000000000e+00     0.0000000000e+00    -2.1287119203e-12    -7.6649233835e-13     1.4974528855e+01     2.1391478074e+01     2.7794016480e-05    -9.3065136873e-04    -2.2653620321e-03 5 0 0 0
109 1     2.4950935314e+01     2.1149176391e+01     0.0000000000e+00     0.0000000000e+00     4.1650503711e-12     2.0809413654e-11     2.4950935314e+01     2.1149176391e+01     2.3283407431e-04    -2.6446961840e-03    -3.0149168462e-03 5 0 0 0
110 1     2.3019470036e+00     2.4397432788e+01     0.0000000000e+00     0.0000000000e+00    -3.3964498535e-11     4.3432233450e-12     2.3019470036e+00     2.4397432788e+01     3.1428411170e-05    -1.0084359003e-05    -1.1244176956e-04 3 0 0 0
111 1     3.7481467405e+00     3.5121436471e+01     0.0000000000e+00     0.0000000000e+00    -6.8883238042e-12    -2.4665452643e-11     3.7481467405e+00     3.5121436471e+01     2.6746179815e-05    -4.6414236514e-05    -2.1263893341e-05 3 0 0 0
112 1     2.1837110922e+01     1.9853826964e+01     0.0000000000e+00     0.0000000000e+00     5.2386186751e-12    -2.1688951091e-11     2.1837110922e+01     1.9853826964e+01     1.4056466110e-04    -4.3373230397e-04    -2.5448288162e-04 3 0 0 0
113 1     8.0357778616e+00     3.8126505863e+01     0.0000000000e+00     0.0000000000e+00    -1.5701233120e-11    -1.1233678606e-11     8.0357778616e+00     3.8126505863e+01     5.2243065927e-04    -8.9121499724e-04    -1.2428261142e-03 4 0 0 0
114 1     2.9550504708e+01     3.5419111286e+01     0.0000000000e+00     0.0000000000e+00     0.0000000000e+00     0.0000000000e+00     2.9550504708e+01     3.5419111286e+01    -0.0000000000e+00    -0.0000000000e+00    -0.0000000000e+00 0 0 0 0
115 1     1.2360462025e+01     2.7320247872e+01     0.0000000000e+00     0.0000000000e+00     3.3194547317e-11     6.0155103555e-13     1.2360462025e+01     2.7320247872e+01     5.4292605009e-04    -1.2882156217e-03    -1.1657356684e-03 4 0 0 0
116 1     3.7081380574e+00     3.3121857508e+01     0.0000000000e+00     0.0000000000e+00    -4.3593874062e-11    -2.5577406729e-11     3.7081380574e+00     3.3121857508e+01     1.8617691348e-04    -2.1251453326e-03    -8.9826795177e-04 5 0 0 0
117 1     7.7486226881e+00     3.2539462696e+01     0.0000000000e+00     0.0000000000e+00    -3.1163907934e-11    -1.8968098088e-11     7.7486226881e+00     3.2539462696e+01     1.6361461444e-04    -9.1384551678e-04    -8.5957151451e-04 3 0 0 0
118 1     3.0179527152e+01     2.6151583829e+01     0.0000000000e+00     0.0000000000e+00    -1.9685861543e-11    -8.4590258246e-12     3.0179527152e+01     2.6151583829e+01    -3.4502353140e-04    -5.3106865977e-04    -7.6059657638e-04 4 0 0 0
119 1     3.6163045872e+01     1.9406285039e+01     0.0000000000e+00     0.0000000000e+00     2.1772081845e-11    -6.5603108883e-12     3.6163045872e+01     1.9406285039e+01    -9.8364104555e-05    -7.0810866036e-04    -3.2692407974e-04 4 0 0 0
120 1     2.5049361110e+01     2.5920195596e+01     0.0000000000e+00     0.0000000000e+00     1.9323079324e-11    -2.5194829946e-12     2.5049361110e+01     2.5920195596e+01     4.5274011713e-04    -1.1696344757e-03    -2.6682336323e-03 4 0 0 0
121 1     3.9207160205e+00     2.5896117457e+01     0.0000000000e+00     0.0000000000e+00    -5.6373598389e-11    -4.2337608002e-11     3.9207160205e+00     2.5896117457e+01     3.8997300096e-04    -1.5511413947e-03    -6.3133723244e-04 3 0 0 0