ITEM: TIMESTEP
190000000
ITEM: NUMBER OF ATOMS
465
ITEM: BOX BOUNDS pp ff pp
0.0000000000000000e+00 1.5011186343322501e+02
0.0000000000000000e+00 1.6691186343322499e+02
-1.0000000000000000e-02 1.0000000000000000e-02
ITEM: ATOMS id type
1746 1
2292 2
523 1
2801 2
2778 2
2843 2
2836 2
2831 2
2305 2
4013 2
1771 1
40 1
2284 2
2782 2
39 1
2803 2
2316 2
3978 2
1767 1
76 1
2291 2
17 1
2308 2
2301 2
54 1
63 1
11 1
2313 2
32 1
2309 2
4020 2
1730 1
1720 1
28 1
2310 2
75 1
2312 2
48 1
52 1
73 1
2282 2
2299 2
1715 1
1714 1
2296 2
69 1
27 1
2283 2
2315 2
53 1
49 1
66 1
26 1
2332 2
2294 2
22 1
33 1
2835 2
2825 2
1078 1
552 1
565 1
2792 2
521 1
2847 2
2845 2
547 1
514 1
553 1
1088 1
1117 1
1131 1
2837 2
545 1
531 1
2798 2
541 1
2795 2
2806 2
2787 2
559 1
3400 2
1122 1
554 1
2830 2
513 1
527 1
520 1
2785 2
532 1
530 1
2826 2
1108 1
3373 2
1138 1
2842 2
2813 2
518 1
2793 2
529 1
2303 2
2794 2
3402 2
1100 1
1087 1
1115 1
2817 2
2790 2
537 1
556 1
2338 2
13 1
2827 2
2317 2
1144 1
1096 1
29 1
2304 2
2887 2
629 1
1055 1
3379 2
3364 2
1051 1
3384 2
3405 2
2870 2
1126 1
2306 2
47 1
36 1
582 1
604 1
2912 2
2855 2
2897 2
575 1
621 1
2853 2
14 1
51 1
588 1
2894 2
2888 2
2909 2
607 1
625 1
581 1
2857 2
45 1
24 1
594 1
2896 2
2904 2
596 1
2867 2
577 1
2899 2
628 1
2298 2
2331 2
2868 2
2900 2
2892 2
595 1
598 1
2878 2
2902 2
2914 2
2889 2
2862 2
615 1
3407 2
3410 2
1134 1
1071 1
1072 1
1140 1
3391 2
1124 1
3376 2
3413 2
1091 1
1070 1
3947 2
3908 2
1090 1
3377 2
1062 1
1101 1
3363 2
1063 1
1054 1
1135 1
1093 1
3388 2
3368 2
3975 2
1674 1
3404 2
1133 1
1084 1
1082 1
1065 1
1076 1
1114 1
1137 1
3394 2
1092 1
1089 1
1667 1
1659 1
3355 2
1073 1
1146 1
1081 1
1094 1
3357 2
3395 2
3386 2
1644 1
3922 2
1647 1
1097 1
3374 2
1056 1
1127 1
3375 2
3417 2
3387 2
1112 1
1067 1
1118 1
3942 2
1668 1
3921 2
589 1
3365 2
1181 1
1666 1
3961 2
3434 2
3432 2
1652 1
3486 2
3489 2
1168 1
590 1
1636 1
1178 1
1149 1
1172 1
3447 2
1186 1
3491 2
1687 1
3483 2
1189 1
2848 2
587 1
2884 2
3474 2
1185 1
3428 2
1173 1
3480 2
3460 2
3457 2
3442 2
3438 2
579 1
601 1
1201 1
3487 2
3475 2
3436 2
1152 1
1199 1
1163 1
608 1
2880 2
2908 2
3461 2
1182 1
1159 1
1174 1
1165 1
1154 1
3441 2
3495 2
1175 1
1155 1
3492 2
3439 2
1156 1
3900 2
1688 1
3945 2
3926 2
3917 2
1665 1
3932 2
3914 2
3913 2
4544 2
4527 2
3934 2
3959 2
3951 2
1657 1
1696 1
1699 1
3910 2
3965 2
4499 2
2257 1
4536 2
3915 2
1692 1
3958 2
1635 1
3957 2
3901 2
1640 1
1638 1
1633 1
3903 2
4554 2
1685 1
3968 2
1673 1
3944 2
1680 1
3935 2
1654 1
4505 2
4511 2
3907 2
1690 1
3963 2
3902 2
3911 2
1634 1
3939 2
1684 1
2209 1
2244 1
1745 1
1777 1
1703 1
3488 2
3443 2
1704 1
3997 2
1762 1
1718 1
4015 2
2210 1
4547 2
1708 1
4043 2
1150 1
1705 1
4027 2
3982 2
1732 1
4000 2
4048 2
4017 2
1170 1
3455 2
1721 1
1716 1
1750 1
4025 2
1737 1
4047 2
1778 1
4006 2
3998 2
3989 2
3449 2
3427 2
4031 2
4041 2
3986 2
1727 1
1717 1
4033 2
1707 1
1712 1
3467 2
3994 2
1763 1
1735 1
1741 1
4010 2
4008 2
1739 1
4038 2
1776 1
4001 2
1756 1
3995 2
3988 2
1770 1
2263 1
2828 2
4552 2
2220 1
4504 2
2235 1
2276 1
4531 2
4502 2
2211 1
2218 1
2249 1
2233 1
2838 2
4528 2
2259 1
2274 1
2238 1
4512 2
2264 1
4519 2
4517 2
2271 1
4495 2
534 1
550 1
2255 1
4515 2
2251 1
4522 2
4489 2
2277 1
2219 1
2241 1
2789 2
562 1
2805 2
4545 2
4523 2
2225 1
2232 1
4488 2
4549 2
4510 2
4493 2
4508 2
2262 1
1710 1
2237 1
4506 2
2254 1
4514 2
4534 2
1748 1
2265 1
4541 2
515 1
2802 2
528 1

