ITEM: TIMESTEP
190000000
ITEM: NUMBER OF ATOMS
460
ITEM: BOX BOUNDS pp ff pp
0.0000000000000000e+00 1.5011186343322501e+02
0.0000000000000000e+00 1.6691186343322499e+02
-1.0000000000000000e-02 1.0000000000000000e-02
ITEM: ATOMS id type
1763 1
4028 2
3967 2
59 1
2310 2
60 1
25 1
2300 2
77 1
2345 2
69 1
2348 2
3991 2
1748 1
2327 2
48 1
57 1
2336 2
32 1
72 1
15 1
47 1
36 1
2297 2
2350 2
2284 2
63 1
1752 1
1768 1
4015 2
19 1
2307 2
3 1
2288 2
2309 2
1737 1
3990 2
1708 1
16 1
40 1
2347 2
2285 2
44 1
74 1
2321 2
4030 2
1769 1
1740 1
2351 2
2332 2
2339 2
58 1
2283 2
2306 2
6 1
2317 2
37 1
2316 2
2328 2
564 1
494 1
1040 1
506 1
527 1
555 1
2829 2
533 1
2849 2
530 1
2868 2
546 1
2822 2
2837 2
1104 1
2853 2
515 1
498 1
491 1
2833 2
523 1
509 1
2813 2
483 1
2846 2
529 1
1084 1
3386 2
1097 1
1056 1
2819 2
492 1
2851 2
517 1
2854 2
2857 2
544 1
500 1
499 1
522 1
489 1
1045 1
490 1
519 1
2812 2
2834 2
62 1
21 1
2308 2
8 1
2824 2
1103 1
616 1
3398 2
496 1
2835 2
73 1
35 1
2323 2
2319 2
514 1
1073 1
584 1
2320 2
2330 2
2 1
2875 2
2908 2
614 1
582 1
607 1
2928 2
2904 2
67 1
56 1
2298 2
2883 2
598 1
2943 2
613 1
580 1
565 1
2893 2
560 1
34 1
70 1
22 1
1 1
2945 2
612 1
2906 2
615 1
2873 2
2887 2
2923 2
2919 2
596 1
9 1
80 1
27 1
581 1
2895 2
585 1
2896 2
566 1
2902 2
2280 2
2282 2
41 1
2944 2
2932 2
2898 2
602 1
2897 2
568 1
2936 2
573 1
604 1
2882 2
2941 2
2870 2
1055 1
1659 1
1092 1
1102 1
3424 2
3401 2
1093 1
3388 2
3439 2
3400 2
1078 1
1065 1
3898 2
3936 2
1079 1
3381 2
3390 2
1053 1
1106 1
3412 2
3426 2
3408 2
1669 1
3905 2
3383 2
1051 1
3429 2
3397 2
3433 2
1083 1
1062 1
1044 1
3404 2
3960 2
3912 2
3432 2
1090 1
1057 1
3407 2
3434 2
3417 2
610 1
1109 1
1698 1
1652 1
1143 1
2874 2
563 1
588 1
571 1
2877 2
583 1
3416 2
3421 2
3428 2
2939 2
1167 1
1132 1
589 1
2942 2
606 1
2909 2
1154 1
1165 1
3459 2
3483 2
3507 2
3484 2
2888 2
2884 2
590 1
1162 1
3493 2
3452 2
3505 2
3442 2
3506 2
3494 2
1125 1
603 1
611 1
1135 1
3487 2
1120 1
3448 2
1124 1
1173 1
1142 1
3485 2
3499 2
3488 2
591 1
572 1
2869 2
1111 1
3467 2
3492 2
1136 1
1112 1
3498 2
1158 1
1113 1
3458 2
577 1
597 1
1145 1
3502 2
3454 2
3451 2
1121 1
1115 1
3457 2
1161 1
3503 2
3481 2
1110 1
4550 2
1691 1
1658 1
3911 2
1657 1
3945 2
3919 2
1675 1
1666 1
2256 1
2263 1
4504 2
1664 1
3940 2
3943 2
3928 2
3915 2
2261 1
2258 1
4483 2
1677 1
1651 1
1687 1
3953 2
1686 1
1700 1
1696 1
1656 1
3955 2
1663 1
3937 2
1678 1
2243 1
4495 2
4540 2
3475 2
3444 2
1688 1
1689 1
1693 1
1151 1
1150 1
1676 1
3934 2
1650 1
3917 2
1672 1
4555 2
4539 2
4507 2
1141 1
3490 2
1168 1
3512 2
1128 1
3952 2
1642 1
4021 2
1728 1
1713 1
4490 2
4514 2
1744 1
4492 2
1743 1
2219 1
1722 1
4013 2
1750 1
1738 1
3979 2
1134 1
3478 2
3964 2
4002 2
4035 2
3984 2
4043 2
1755 1
4011 2
1714 1
4041 2
3513 2
4003 2
3985 2
1709 1
4004 2
1137 1
3477 2
1163 1
3986 2
3973 2
4005 2
4001 2
1762 1
4034 2
1771 1
3982 2
3980 2
1754 1
1126 1
3479 2
1148 1
3972 2
3987 2
3971 2
4000 2
1761 1
1739 1
1747 1
3970 2
3975 2
4020 2
4536 2
487 1
2249 1
4505 2
2231 1
4485 2
4508 2
2238 1
2237 1
2267 1
4544 2
495 1
4547 2
4549 2
2266 1
4479 2
2253 1
4510 2
4476 2
4534 2
4548 2
4524 2
507 1
2865 2
2230 1
2235 1
4531 2
2270 1
2254 1
4530 2
4537 2
4538 2
2225 1
4512 2
2272 1
4498 2
4542 2
4477 2
4494 2
2275 1
4532 2
2844 2
2277 1
4017 2
4471 2
2242 1
4553 2
1716 1
1718 1
2220 1
520 1

