ITEM: TIMESTEP
190000000
ITEM: NUMBER OF ATOMS
466
ITEM: BOX BOUNDS pp ff pp
0.0000000000000000e+00 1.5011186343322501e+02
0.0000000000000000e+00 1.6691186343322499e+02
-1.0000000000000000e-02 1.0000000000000000e-02
ITEM: ATOMS id type
4517 2
2257 1
2787 2
2831 2
2810 2
518 1
514 1
2301 2
2331 2
2293 2
2793 2
2320 2
1796 1
3987 2
1744 1
2330 2
27 1
60 1
2281 2
2292 2
4037 2
10 1
14 1
62 1
9 1
48 1
2303 2
21 1
30 1
2324 2
2305 2
4044 2
3990 2
2306 2
39 1
2279 2
54 1
2335 2
2313 2
15 1
2326 2
2288 2
2318 2
2311 2
1801 1
1755 1
2314 2
26 1
16 1
2286 2
5 1
40 1
4045 2
3996 2
2327 2
2807 2
2837 2
1095 1
540 1
2799 2
519 1
528 1
524 1
2841 2
2816 2
2804 2
1114 1
1130 1
2814 2
561 1
2795 2
539 1
550 1
523 1
541 1
546 1
553 1
2781 2
1102 1
1110 1
1136 1
2790 2
509 1
522 1
2779 2
2802 2
2783 2
2801 2
2794 2
515 1
1133 1
1106 1
2815 2
536 1
2817 2
533 1
527 1
537 1
501 1
510 1
1137 1
1097 1
3342 2
558 1
500 1
502 1
506 1
2800 2
555 1
2808 2
2789 2
505 1
521 1
507 1
3357 2
1100 1
1096 1
2338 2
2782 2
2829 2
587 1
3366 2
618 1
3354 2
2861 2
590 1
2871 2
2855 2
2887 2
4 1
32 1
12 1
3398 2
2862 2
2847 2
577 1
576 1
2845 2
2870 2
2898 2
2294 2
2290 2
594 1
596 1
2888 2
2903 2
597 1
563 1
2844 2
611 1
2848 2
2297 2
1 1
53 1
620 1
591 1
2875 2
633 1
2905 2
570 1
2849 2
606 1
617 1
49 1
2322 2
2873 2
567 1
622 1
574 1
2877 2
621 1
612 1
625 1
584 1
616 1
2851 2
580 1
573 1
2878 2
3359 2
1107 1
1697 1
3352 2
1125 1
3338 2
3346 2
3365 2
1108 1
3394 2
3343 2
3949 2
1671 1
3384 2
1088 1
3360 2
3336 2
3340 2
1119 1
1093 1
1672 1
3962 2
3347 2
1087 1
1086 1
1092 1
1120 1
1135 1
3361 2
1117 1
3377 2
3383 2
3958 2
3964 2
1673 1
1099 1
1126 1
1113 1
3382 2
3373 2
3388 2
583 1
1706 1
3975 2
1729 1
3358 2
3348 2
629 1
1116 1
2857 2
2874 2
1091 1
3386 2
3942 2
1681 1
571 1
3938 2
1169 1
3413 2
1170 1
1665 1
3399 2
3464 2
1199 1
2852 2
603 1
592 1
1683 1
1153 1
1211 1
1147 1
3400 2
1209 1
1190 1
1203 1
3457 2
1188 1
1195 1
1163 1
634 1
2892 2
3423 2
1141 1
3409 2
1217 1
3425 2
1182 1
1187 1
1174 1
1145 1
3441 2
3454 2
1197 1
2880 2
2859 2
1218 1
1183 1
3422 2
1180 1
1159 1
1176 1
3407 2
568 1
2854 2
1157 1
1196 1
3443 2
3424 2
1173 1
3416 2
1179 1
3433 2
3439 2
3432 2
1143 1
3462 2
3953 2
2261 1
1713 1
3937 2
3948 2
1656 1
3924 2
1664 1
3955 2
1694 1
1721 1
1712 1
1708 1
4502 2
4549 2
1657 1
3909 2
3920 2
3952 2
3944 2
1663 1
3936 2
1702 1
3913 2
1667 1
4510 2
2270 1
4540 2
3943 2
3925 2
1717 1
1727 1
3946 2
1668 1
3951 2
2268 1
3957 2
1700 1
3972 2
3935 2
3922 2
3415 2
3917 2
1660 1
1693 1
2219 1
4533 2
3449 2
1690 1
3929 2
1714 1
3914 2
1724 1
1219 1
1181 1
1703 1
1720 1
2227 1
1785 1
1793 1
1151 1
3988 2
4035 2
1752 1
1765 1
1732 1
3982 2
1741 1
3991 2
4008 2
3403 2
3456 2
1787 1
4011 2
1777 1
1763 1
4025 2
1775 1
4015 2
3981 2
1791 1
1201 1
1138 1
1769 1
1780 1
4000 2
1767 1
1757 1
4003 2
4017 2
4002 2
1204 1
1215 1
3417 2
4016 2
1758 1
1737 1
3985 2
4014 2
1790 1
3980 2
4043 2
3989 2
3430 2
3405 2
4027 2
1734 1
4013 2
1746 1
1779 1
1756 1
4005 2
4039 2
1198 1
4019 2
2254 1
4507 2
2256 1
4523 2
2226 1
4484 2
2230 1
2241 1
4515 2
4504 2
2237 1
2213 1
2805 2
2216 1
4525 2
4492 2
2266 1
4493 2
2225 1
2220 1
4505 2
2263 1
2835 2
2818 2
2259 1
2250 1
4548 2
4482 2
4545 2
4496 2
4497 2
4509 2
559 1
2825 2
4544 2
4553 2
4534 2
4551 2
4538 2
2276 1
2249 1
4516 2
512 1
4513 2
1759 1
1783 1
2273 1
4539 2
3977 2
1799 1
2245 1
1768 1
2238 1
4503 2
499 1
552 1

