ITEM: TIMESTEP
190000000
ITEM: NUMBER OF ATOMS
452
ITEM: BOX BOUNDS pp ff pp
0.0000000000000000e+00 1.5011186343322501e+02
0.0000000000000000e+00 1.6691186343322499e+02
-1.0000000000000000e-02 1.0000000000000000e-02
ITEM: ATOMS id type
4024 2
1753 1
4029 2
12 1
15 1
46 1
39 1
2286 2
67 1
42 1
5 1
2 1
1757 1
3986 2
1704 1
3987 2
24 1
2300 2
33 1
2328 2
65 1
2331 2
66 1
1710 1
1725 1
1775 1
1713 1
54 1
68 1
2280 2
2297 2
2290 2
2289 2
1701 1
1720 1
2341 2
2310 2
2339 2
40 1
28 1
2323 2
2324 2
49 1
4020 2
4011 2
51 1
6 1
2347 2
2282 2
2336 2
22 1
2330 2
8 1
2288 2
29 1
32 1
23 1
513 1
3357 2
2822 2
502 1
481 1
2820 2
484 1
527 1
522 1
2821 2
2816 2
2806 2
3363 2
2811 2
497 1
2792 2
486 1
518 1
2827 2
2795 2
3389 2
2785 2
2812 2
2837 2
2789 2
2796 2
479 1
501 1
1049 1
3335 2
3376 2
2305 2
2349 2
2296 2
511 1
2301 2
523 1
2815 2
476 1
487 1
1054 1
1096 1
3366 2
3399 2
2281 2
2317 2
2313 2
14 1
2304 2
508 1
34 1
514 1
482 1
490 1
1090 1
1105 1
3341 2
2302 2
529 1
1057 1
1063 1
2846 2
3373 2
604 1
2904 2
545 1
549 1
2891 2
2899 2
3398 2
26 1
38 1
2903 2
2862 2
607 1
552 1
548 1
2864 2
2893 2
600 1
551 1
2844 2
574 1
2327 2
27 1
2902 2
542 1
553 1
2853 2
2888 2
618 1
43 1
598 1
2875 2
2849 2
595 1
617 1
2843 2
561 1
2883 2
2854 2
543 1
2874 2
2868 2
41 1
63 1
609 1
2886 2
2901 2
540 1
538 1
2872 2
569 1
537 1
2898 2
578 1
2889 2
585 1
1087 1
1663 1
1104 1
3367 2
3342 2
1069 1
1101 1
3405 2
3390 2
3941 2
1048 1
1118 1
3409 2
1068 1
3355 2
1071 1
1108 1
1094 1
3385 2
3925 2
3952 2
3364 2
3360 2
1099 1
3397 2
1073 1
3346 2
1052 1
3371 2
1100 1
3365 2
1675 1
3926 2
1662 1
3937 2
3394 2
1112 1
1113 1
1059 1
3347 2
1081 1
1053 1
3359 2
1652 1
1639 1
3930 2
1079 1
1107 1
1103 1
592 1
1092 1
1074 1
3396 2
3379 2
3956 2
3919 2
3400 2
1089 1
1633 1
3958 2
3414 2
3884 2
1124 1
3476 2
3446 2
3422 2
3425 2
3419 2
1155 1
3909 2
3918 2
1128 1
3460 2
1153 1
1146 1
3485 2
3464 2
2895 2
610 1
3442 2
3421 2
1120 1
1163 1
1133 1
1157 1
1156 1
3444 2
554 1
564 1
1121 1
3420 2
1131 1
3469 2
3453 2
3432 2
3472 2
1139 1
3461 2
3429 2
2867 2
2848 2
1167 1
1127 1
1168 1
3426 2
1135 1
1143 1
3435 2
1130 1
3470 2
3488 2
3479 2
1655 1
3894 2
3924 2
3905 2
3928 2
3921 2
3942 2
3955 2
4512 2
4549 2
4499 2
3890 2
3889 2
1644 1
1646 1
1671 1
1697 1
1685 1
3878 2
3888 2
2225 1
4508 2
1651 1
1668 1
3901 2
3883 2
3935 2
3939 2
3910 2
1680 1
1661 1
1682 1
4496 2
1678 1
3946 2
1676 1
1673 1
1650 1
1125 1
1696 1
1642 1
1735 1
1754 1
2252 1
3417 2
3886 2
1653 1
1142 1
1132 1
3440 2
3468 2
3427 2
1761 1
4022 2
1774 1
3482 2
3431 2
3430 2
1729 1
3984 2
1765 1
1711 1
1743 1
1742 1
1773 1
3960 2
4035 2
4028 2
3991 2
3966 2
1772 1
3994 2
4009 2
4030 2
4014 2
3423 2
1141 1
1723 1
1736 1
1703 1
1700 1
4000 2
1724 1
3962 2
1756 1
1158 1
3452 2
3448 2
1712 1
3982 2
4010 2
4012 2
1708 1
4015 2
3971 2
1728 1
1714 1
3471 2
1746 1
1738 1
4034 2
1762 1
1717 1
3981 2
1749 1
4016 2
1707 1
4021 2
1730 1
4007 2
2241 1
2219 1
4548 2
4536 2
2223 1
2259 1
4530 2
4511 2
4534 2
2240 1
4555 2
2255 1
2784 2
500 1
4527 2
4522 2
4551 2
2214 1
4481 2
504 1
510 1
530 1
2271 1
2274 1
4492 2
4479 2
4524 2
2246 1
1739 1
2221 1
2237 1
2248 1
4542 2
4513 2
531 1
2835 2
2213 1
4491 2
2266 1
3972 2
1705 1
4488 2
2238 1
3974 2
3980 2
2794 2
1766 1
2236 1
4036 2
4033 2
4514 2
3990 2
1709 1
2314 2
489 1

