ITEM: TIMESTEP
190000000
ITEM: NUMBER OF ATOMS
454
ITEM: BOX BOUNDS pp ff pp
0.0000000000000000e+00 1.5011186343322501e+02
0.0000000000000000e+00 1.6691186343322499e+02
-1.0000000000000000e-02 1.0000000000000000e-02
ITEM: ATOMS id type
4063 2
1771 1
1748 1
2239 1
2252 1
504 1
2325 2
2752 2
7 1
2749 2
39 1
2301 2
1788 1
26 1
45 1
16 1
51 1
37 1
43 1
33 1
46 1
6 1
4030 2
4075 2
2316 2
54 1
2323 2
2305 2
2319 2
25 1
2334 2
2331 2
10 1
2322 2
2338 2
1746 1
4058 2
1745 1
2304 2
27 1
18 1
47 1
2337 2
2327 2
1725 1
4047 2
2330 2
2302 2
1 1
2332 2
21 1
22 1
53 1
2336 2
4 1
2297 2
2788 2
521 1
2787 2
530 1
2756 2
511 1
2806 2
493 1
1087 1
1134 1
1136 1
1092 1
3381 2
2784 2
2774 2
2769 2
2761 2
2781 2
2815 2
2814 2
512 1
518 1
2816 2
509 1
3328 2
3356 2
1132 1
514 1
502 1
2757 2
2812 2
508 1
2795 2
1115 1
516 1
2783 2
2782 2
2767 2
2802 2
489 1
2770 2
1142 1
3377 2
1093 1
2807 2
2763 2
2314 2
2786 2
491 1
2801 2
503 1
2286 2
2777 2
3362 2
553 1
1088 1
1144 1
2299 2
2885 2
575 1
3327 2
2834 2
1147 1
2859 2
1131 1
2832 2
559 1
2284 2
2881 2
537 1
2847 2
547 1
2855 2
555 1
2864 2
2867 2
2310 2
20 1
533 1
540 1
594 1
2838 2
576 1
2840 2
557 1
2869 2
2883 2
2876 2
590 1
563 1
2872 2
2884 2
2830 2
567 1
2836 2
534 1
2842 2
42 1
2306 2
589 1
2820 2
578 1
2852 2
568 1
2825 2
595 1
572 1
564 1
2827 2
588 1
561 1
2860 2
2882 2
3321 2
3350 2
1112 1
1120 1
3340 2
3349 2
3336 2
3319 2
3378 2
4008 2
3976 2
3313 2
1100 1
1102 1
3331 2
3345 2
3329 2
1107 1
1085 1
3376 2
3980 2
1665 1
3994 2
1116 1
3332 2
1140 1
3364 2
1125 1
3334 2
3369 2
3353 2
1716 1
4018 2
3939 2
1133 1
3330 2
1106 1
1128 1
1126 1
3359 2
3315 2
1148 1
1680 1
3958 2
1110 1
1104 1
1138 1
1083 1
3365 2
1130 1
3322 2
3318 2
3346 2
1103 1
1178 1
3947 2
2835 2
562 1
3404 2
1157 1
3433 2
3427 2
3452 2
3398 2
1694 1
3937 2
1193 1
4016 2
2841 2
554 1
3397 2
1182 1
3449 2
1160 1
1170 1
1179 1
3386 2
1171 1
1185 1
2887 2
3435 2
1215 1
1161 1
3418 2
1227 1
1223 1
1216 1
3428 2
3454 2
1159 1
1219 1
1197 1
2843 2
1202 1
1169 1
1212 1
3436 2
3442 2
1164 1
3455 2
1195 1
1175 1
3385 2
593 1
2819 2
3395 2
3444 2
3417 2
1231 1
1199 1
1173 1
1184 1
3403 2
3392 2
1167 1
1724 1
3978 2
3935 2
1701 1
1719 1
1695 1
1718 1
3960 2
1699 1
3977 2
4015 2
3946 2
1722 1
4506 2
3970 2
1672 1
4001 2
1669 1
1674 1
3969 2
3967 2
4006 2
3986 2
2236 1
1671 1
3964 2
1707 1
1692 1
3948 2
1681 1
3945 2
1670 1
4547 2
4007 2
3956 2
1708 1
3963 2
3949 2
4011 2
1711 1
3940 2
3944 2
3996 2
4505 2
1677 1
4012 2
3987 2
1684 1
4009 2
1174 1
1689 1
2265 1
2246 1
2256 1
4537 2
4002 2
4060 2
1731 1
4520 2
2251 1
2248 1
4507 2
1766 1
1777 1
2238 1
1781 1
3434 2
4061 2
4539 2
4028 2
4056 2
4064 2
1789 1
1769 1
1753 1
4022 2
1759 1
1156 1
3411 2
3423 2
1754 1
1738 1
4054 2
2210 1
1747 1
4029 2
4070 2
1743 1
1749 1
1765 1
3415 2
1192 1
3387 2
4043 2
4044 2
4045 2
4034 2
1727 1
1775 1
3409 2
1740 1
4033 2
4072 2
1785 1
1730 1
4057 2
1741 1
4039 2
4026 2
1726 1
3410 2
1755 1
4549 2
2217 1
2212 1
522 1
4499 2
4552 2
4532 2
2274 1
2262 1
2224 1
4517 2
2264 1
2215 1
484 1
2809 2
2245 1
2270 1
4511 2
4533 2
4519 2
4528 2
4535 2
4548 2
4546 2
4538 2
529 1
4555 2
2247 1
2253 1
2209 1
2267 1
4522 2
4503 2
2263 1
2219 1
2759 2
4518 2
2260 1
2218 1
4500 2
2240 1
4521 2
4544 2
2277 1
2258 1
517 1
2768 2
2244 1
2242 1
2213 1
2216 1
4514 2
4554 2
2221 1
2273 1
2232 1
2266 1
2753 2

